# vtk DataFile Version 2.0
Unstructured Grid Example
ASCII
DATASET UNSTRUCTURED_GRID

POINTS 961 float
0.100000001 0.00499999989 0
0.0966666639 0.00499999989 0
0.0933333337 0.00499999989 0
0.0900000036 0.00499999989 0
0.086666666 0.00499999989 0
0.0833333358 0.00499999989 0
0.0799999982 0.00499999989 0
0.0766666681 0.00499999989 0
0.0733333305 0.00499999989 0
0.0700000003 0.00499999989 0
0.0666666701 0.00499999989 0
0.0633333325 0.00499999989 0
0.0599999987 0.00499999989 0
0.0566666685 0.00499999989 0
0.0533333346 0.00499999989 0
0.0500000007 0.00499999989 0
0.0466666669 0.00499999989 0
0.043333333 0.00499999989 0
0.0399999991 0.00499999989 0
0.0366666652 0.00499999989 0
0.0333333351 0.00499999989 0
0.0299999993 0.00499999989 0
0.0266666673 0.00499999989 0
0.0233333334 0.00499999989 0
0.0199999996 0.00499999989 0
0.0166666675 0.00499999989 0
0.0133333337 0.00499999989 0
0.00999999978 0.00499999989 0
0.00666666683 0.00499999989 0
0.00333333341 0.00499999989 0
0 0.00499999989 0
0.100000001 0.00166666671 0
0.0966666639 0.00166666671 0
0.0933333337 0.00166666671 0
0.0900000036 0.00166666671 0
0.086666666 0.00166666671 0
0.0833333358 0.00166666671 0
0.0799999982 0.00166666671 0
0.0766666681 0.00166666671 0
0.0733333305 0.00166666671 0
0.0700000003 0.00166666671 0
0.0666666701 0.00166666671 0
0.0633333325 0.00166666671 0
0.0599999987 0.00166666671 0
0.0566666685 0.00166666671 0
0.0533333346 0.00166666671 0
0.0500000007 0.00166666671 0
0.0466666669 0.00166666671 0
0.043333333 0.00166666671 0
0.0399999991 0.00166666671 0
0.0366666652 0.00166666671 0
0.0333333351 0.00166666671 0
0.0299999993 0.00166666671 0
0.0266666673 0.00166666671 0
0.0233333334 0.00166666671 0
0.0199999996 0.00166666671 0
0.0166666675 0.00166666671 0
0.0133333337 0.00166666671 0
0.00999999978 0.00166666671 0
0.00666666683 0.00166666671 0
0.00333333341 0.00166666671 0
0 0.00166666671 0
0.100000001 -0.00166666671 0
0.0966666639 -0.00166666671 0
0.0933333337 -0.00166666671 0
0.0900000036 -0.00166666671 0
0.086666666 -0.00166666671 0
0.0833333358 -0.00166666671 0
0.0799999982 -0.00166666671 0
0.0766666681 -0.00166666671 0
0.0733333305 -0.00166666671 0
0.0700000003 -0.00166666671 0
0.0666666701 -0.00166666671 0
0.0633333325 -0.00166666671 0
0.0599999987 -0.00166666671 0
0.0566666685 -0.00166666671 0
0.0533333346 -0.00166666671 0
0.0500000007 -0.00166666671 0
0.0466666669 -0.00166666671 0
0.043333333 -0.00166666671 0
0.0399999991 -0.00166666671 0
0.0366666652 -0.00166666671 0
0.0333333351 -0.00166666671 0
0.0299999993 -0.00166666671 0
0.0266666673 -0.00166666671 0
0.0233333334 -0.00166666671 0
0.0199999996 -0.00166666671 0
0.0166666675 -0.00166666671 0
0.0133333337 -0.00166666671 0
0.00999999978 -0.00166666671 0
0.00666666683 -0.00166666671 0
0.00333333341 -0.00166666671 0
0 -0.00166666671 0
0.100000001 -0.00499999989 0
0.0966666639 -0.00499999989 0
0.0933333337 -0.00499999989 0
0.0900000036 -0.00499999989 0
0.086666666 -0.00499999989 0
0.0833333358 -0.00499999989 0
0.0799999982 -0.00499999989 0
0.0766666681 -0.00499999989 0
0.0733333305 -0.00499999989 0
0.0700000003 -0.00499999989 0
0.0666666701 -0.00499999989 0
0.0633333325 -0.00499999989 0
0.0599999987 -0.00499999989 0
0.0566666685 -0.00499999989 0
0.0533333346 -0.00499999989 0
0.0500000007 -0.00499999989 0
0.0466666669 -0.00499999989 0
0.043333333 -0.00499999989 0
0.0399999991 -0.00499999989 0
0.0366666652 -0.00499999989 0
0.0333333351 -0.00499999989 0
0.0299999993 -0.00499999989 0
0.0266666673 -0.00499999989 0
0.0233333334 -0.00499999989 0
0.0199999996 -0.00499999989 0
0.0166666675 -0.00499999989 0
0.0133333337 -0.00499999989 0
0.00999999978 -0.00499999989 0
0.00666666683 -0.00499999989 0
0.00333333341 -0.00499999989 0
0 -0.00499999989 0
0.100000001 -0.00833333377 0
0.0966666639 -0.00833333377 0
0.0933333337 -0.00833333377 0
0.0900000036 -0.00833333377 0
0.086666666 -0.00833333377 0
0.0833333358 -0.00833333377 0
0.0799999982 -0.00833333377 0
0.0766666681 -0.00833333377 0
0.0733333305 -0.00833333377 0
0.0700000003 -0.00833333377 0
0.0666666701 -0.00833333377 0
0.0633333325 -0.00833333377 0
0.0599999987 -0.00833333377 0
0.0566666685 -0.00833333377 0
0.0533333346 -0.00833333377 0
0.0500000007 -0.00833333377 0
0.0466666669 -0.00833333377 0
0.043333333 -0.00833333377 0
0.0399999991 -0.00833333377 0
0.0366666652 -0.00833333377 0
0.0333333351 -0.00833333377 0
0.0299999993 -0.00833333377 0
0.0266666673 -0.00833333377 0
0.0233333334 -0.00833333377 0
0.0199999996 -0.00833333377 0
0.0166666675 -0.00833333377 0
0.0133333337 -0.00833333377 0
0.00999999978 -0.00833333377 0
0.00666666683 -0.00833333377 0
0.00333333341 -0.00833333377 0
0 -0.00833333377 0
0.100000001 -0.0116666667 0
0.0966666639 -0.0116666667 0
0.0933333337 -0.0116666667 0
0.0900000036 -0.0116666667 0
0.086666666 -0.0116666667 0
0.0833333358 -0.0116666667 0
0.0799999982 -0.0116666667 0
0.0766666681 -0.0116666667 0
0.0733333305 -0.0116666667 0
0.0700000003 -0.0116666667 0
0.0666666701 -0.0116666667 0
0.0633333325 -0.0116666667 0
0.0599999987 -0.0116666667 0
0.0566666685 -0.0116666667 0
0.0533333346 -0.0116666667 0
0.0500000007 -0.0116666667 0
0.0466666669 -0.0116666667 0
0.043333333 -0.0116666667 0
0.0399999991 -0.0116666667 0
0.0366666652 -0.0116666667 0
0.0333333351 -0.0116666667 0
0.0299999993 -0.0116666667 0
0.0266666673 -0.0116666667 0
0.0233333334 -0.0116666667 0
0.0199999996 -0.0116666667 0
0.0166666675 -0.0116666667 0
0.0133333337 -0.0116666667 0
0.00999999978 -0.0116666667 0
0.00666666683 -0.0116666667 0
0.00333333341 -0.0116666667 0
0 -0.0116666667 0
0.100000001 -0.0149999997 0
0.0966666639 -0.0149999997 0
0.0933333337 -0.0149999997 0
0.0900000036 -0.0149999997 0
0.086666666 -0.0149999997 0
0.0833333358 -0.0149999997 0
0.0799999982 -0.0149999997 0
0.0766666681 -0.0149999997 0
0.0733333305 -0.0149999997 0
0.0700000003 -0.0149999997 0
0.0666666701 -0.0149999997 0
0.0633333325 -0.0149999997 0
0.0599999987 -0.0149999997 0
0.0566666685 -0.0149999997 0
0.0533333346 -0.0149999997 0
0.0500000007 -0.0149999997 0
0.0466666669 -0.0149999997 0
0.043333333 -0.0149999997 0
0.0399999991 -0.0149999997 0
0.0366666652 -0.0149999997 0
0.0333333351 -0.0149999997 0
0.0299999993 -0.0149999997 0
0.0266666673 -0.0149999997 0
0.0233333334 -0.0149999997 0
0.0199999996 -0.0149999997 0
0.0166666675 -0.0149999997 0
0.0133333337 -0.0149999997 0
0.00999999978 -0.0149999997 0
0.00666666683 -0.0149999997 0
0.00333333341 -0.0149999997 0
0 -0.0149999997 0
0.100000001 -0.0183333326 0
0.0966666639 -0.0183333326 0
0.0933333337 -0.0183333326 0
0.0900000036 -0.0183333326 0
0.086666666 -0.0183333326 0
0.0833333358 -0.0183333326 0
0.0799999982 -0.0183333326 0
0.0766666681 -0.0183333326 0
0.0733333305 -0.0183333326 0
0.0700000003 -0.0183333326 0
0.0666666701 -0.0183333326 0
0.0633333325 -0.0183333326 0
0.0599999987 -0.0183333326 0
0.0566666685 -0.0183333326 0
0.0533333346 -0.0183333326 0
0.0500000007 -0.0183333326 0
0.0466666669 -0.0183333326 0
0.043333333 -0.0183333326 0
0.0399999991 -0.0183333326 0
0.0366666652 -0.0183333326 0
0.0333333351 -0.0183333326 0
0.0299999993 -0.0183333326 0
0.0266666673 -0.0183333326 0
0.0233333334 -0.0183333326 0
0.0199999996 -0.0183333326 0
0.0166666675 -0.0183333326 0
0.0133333337 -0.0183333326 0
0.00999999978 -0.0183333326 0
0.00666666683 -0.0183333326 0
0.00333333341 -0.0183333326 0
0 -0.0183333326 0
0.100000001 -0.0216666665 0
0.0966666639 -0.0216666665 0
0.0933333337 -0.0216666665 0
0.0900000036 -0.0216666665 0
0.086666666 -0.0216666665 0
0.0833333358 -0.0216666665 0
0.0799999982 -0.0216666665 0
0.0766666681 -0.0216666665 0
0.0733333305 -0.0216666665 0
0.0700000003 -0.0216666665 0
0.0666666701 -0.0216666665 0
0.0633333325 -0.0216666665 0
0.0599999987 -0.0216666665 0
0.0566666685 -0.0216666665 0
0.0533333346 -0.0216666665 0
0.0500000007 -0.0216666665 0
0.0466666669 -0.0216666665 0
0.043333333 -0.0216666665 0
0.0399999991 -0.0216666665 0
0.0366666652 -0.0216666665 0
0.0333333351 -0.0216666665 0
0.0299999993 -0.0216666665 0
0.0266666673 -0.0216666665 0
0.0233333334 -0.0216666665 0
0.0199999996 -0.0216666665 0
0.0166666675 -0.0216666665 0
0.0133333337 -0.0216666665 0
0.00999999978 -0.0216666665 0
0.00666666683 -0.0216666665 0
0.00333333341 -0.0216666665 0
0 -0.0216666665 0
0.100000001 -0.0250000004 0
0.0966666639 -0.0250000004 0
0.0933333337 -0.0250000004 0
0.0900000036 -0.0250000004 0
0.086666666 -0.0250000004 0
0.0833333358 -0.0250000004 0
0.0799999982 -0.0250000004 0
0.0766666681 -0.0250000004 0
0.0733333305 -0.0250000004 0
0.0700000003 -0.0250000004 0
0.0666666701 -0.0250000004 0
0.0633333325 -0.0250000004 0
0.0599999987 -0.0250000004 0
0.0566666685 -0.0250000004 0
0.0533333346 -0.0250000004 0
0.0500000007 -0.0250000004 0
0.0466666669 -0.0250000004 0
0.043333333 -0.0250000004 0
0.0399999991 -0.0250000004 0
0.0366666652 -0.0250000004 0
0.0333333351 -0.0250000004 0
0.0299999993 -0.0250000004 0
0.0266666673 -0.0250000004 0
0.0233333334 -0.0250000004 0
0.0199999996 -0.0250000004 0
0.0166666675 -0.0250000004 0
0.0133333337 -0.0250000004 0
0.00999999978 -0.0250000004 0
0.00666666683 -0.0250000004 0
0.00333333341 -0.0250000004 0
0 -0.0250000004 0
0.100000001 -0.0283333343 0
0.0966666639 -0.0283333343 0
0.0933333337 -0.0283333343 0
0.0900000036 -0.0283333343 0
0.086666666 -0.0283333343 0
0.0833333358 -0.0283333343 0
0.0799999982 -0.0283333343 0
0.0766666681 -0.0283333343 0
0.0733333305 -0.0283333343 0
0.0700000003 -0.0283333343 0
0.0666666701 -0.0283333343 0
0.0633333325 -0.0283333343 0
0.0599999987 -0.0283333343 0
0.0566666685 -0.0283333343 0
0.0533333346 -0.0283333343 0
0.0500000007 -0.0283333343 0
0.0466666669 -0.0283333343 0
0.043333333 -0.0283333343 0
0.0399999991 -0.0283333343 0
0.0366666652 -0.0283333343 0
0.0333333351 -0.0283333343 0
0.0299999993 -0.0283333343 0
0.0266666673 -0.0283333343 0
0.0233333334 -0.0283333343 0
0.0199999996 -0.0283333343 0
0.0166666675 -0.0283333343 0
0.0133333337 -0.0283333343 0
0.00999999978 -0.0283333343 0
0.00666666683 -0.0283333343 0
0.00333333341 -0.0283333343 0
0 -0.0283333343 0
0.100000001 -0.0316666663 0
[...]
POINT_DATA 961
SCALARS Temp float 1
LOOKUP_TABLE default
149.55694404571844
129.23999076568185
125.85392329223426
125.2857481843938
125.19036677887681
125.17432721718211
125.17162906403358
125.1711748215433
125.17109832741748
125.17108543997922
125.17108326826026
125.17108290218363
125.17108284046517
125.17108283005885
125.17108282831191
125.1710828280658
125.17108282831194
125.17108283005882
125.17108284046517
125.17108290218381
125.17108326825903
125.17108543998171
125.17109832745373
125.17117482152625
125.17162906528897
125.17432721251542
125.19036679692455
125.28574800741984
125.85392353534614
129.24000166561456
149.55694830253935
129.2399977576767
108.45601290414496
104.96661885347535
104.3808987618526
104.28239089292495
104.26582074971748
104.2630309784243
104.26256119338643
104.2624820437987
104.26246870612681
104.26246645783961
104.26246607878818
104.26246601486825
104.26246600408913
104.26246600227937
104.26246600202435
104.26246600227933
104.26246600408915
104.26246601486825
104.26246607878835
104.26246645783834
104.26246870612935
104.26248204383613
104.26256119336881
104.26303097972242
104.26582074489546
104.2823909115655
104.38089857933363
104.96661910400417
108.45602408020686
129.24000208883004
125.85391903674339
104.96660724563368
101.43748293136663
100.84241732108173
100.74213695856008
100.72523233895305
100.72238289677784
100.72190245060122
100.72182143794066
100.72180777463718
100.72180547002003
100.7218050812302
100.72180501563565
100.72180500456894
100.72180500271013
100.7218050024481
100.72180500271011
100.72180500456892
100.72180501563572
100.72180508123043
100.72180547001875
100.72180777463979
100.72182143797903
100.7219024505832
100.72238289810427
100.72523233403214
100.74213697754817
100.8424171355461
101.43748318511541
104.96661849793865
125.85392337148807
125.28574339680908
104.3808865895448
100.84241676318706
100.2439100725193
100.14277970860064
100.12570024280696
100.122816138422
100.12232921641017
100.12224700751017
100.12223312881663
100.12223078565209
100.12223039005156
100.1222303232586
100.12223031198246
100.12223031008737
100.12223030982015
100.12223031008737
100.12223031198248
100.12223032325865
100.12223039005173
100.12223078565076
100.12223312881932
100.12224700754916
100.12232921639189
100.12281613976505
100.1257002378329
100.14277972775983
100.24390988577949
100.84241701784093
104.38089785652032
125.28574773117825
125.19036218655619
104.28237891925383
100.74213660519158
100.14277991512368
100.04134691351285
100.0241897385752
100.02128863615893
100.02079819747173
100.02071530378336
100.02070129452977
100.02069892716719
100.02069852713261
100.0206984595393
100.0206984481198
100.02069844619938
100.02069844592839
100.02069844619936
100.02069844811977
100.02069845953936
100.0206985271328
100.02069892716588
100.0207012945325
100.02071530382257
100.02079819745333
100.0212886375103
100.02418973357663
100.04134693273795
100.14277972803782
100.74213686003112
104.28239018885547
125.19036652093975
125.17432260317116
104.26580875312727
100.72523196269216
100.12570042636055
100.02418971542114
100.00700557916541
100.00409733886582
100.00360526268895
100.00352201743051
100.00350793715407
100.00350555584446
100.00350515315304
100.00350508506172
100.00350507355036
100.0035050716132
100.00350507133972
100.0035050716132
100.00350507355029
100.00350508506169
100.00350515315328
100.0035055558432
100.00350793715684
100.00352201746998
100.00360526267045
100.0040973402209
100.00700557415777
100.0241897346654
100.12570023919356
100.72523221756725
104.26582002320178
125.1743269375428
125.17162445389098
104.26301898574448
100.72238252458821
100.12281632612007
100.0212886171496
100.0040973430256
100.00118667491584
100.00069394030443
100.00061053820063
100.00059642314514
100.00059403457719
100.0005936304209
100.00059356204325
100.000593550477
100.00059354852958
100.0005935482546
100.00059354852952
100.00059355047695
100.00059356204322
100.00059363042111
100.00059403457584
100.00059642314791
100.0006105382401
100.00069394028594
100.00118667627224
100.00409733801534
100.02128863639838
100.122816138936
100.7223827794701
104.26303025590097
125.17162878826217
125.17117021017019
104.26254919941873
100.72190207710953
100.1223294027949
100.02079817713673
100.00360526552076
100.00069393897448
100.0002009837972
100.00011752072277
100.00010339069762
100.00010099871537
100.00010059382572
100.00010052529622
100.00010051369966
100.00010051174637
100.0001005114704
100.00010051174633
100.0001005136996
100.00010052529623
100.00010059382589
100.00010099871405
100.00010339070035
100.00011752076233
100.00020098377867
100.00069394033126
100.00360526050984
100.02079819638644
100.12232921560751
100.72190233199245
104.26256046958959
125.17117454454107
125.17109371604666
104.26247004983065
100.72182106445103
100.12224719389809
100.02071528345064
100.00352202026508
100.00061053687314
100.0001175207255
100.000034037465
100.00001990177472
100.00001750836675
100.00001710314382
100.00001703454086
100.00001702292877
100.00001702097228
100.0000170206958
100.00001702097221
100.00001702292866
100.00001703454086
100.00001710314397
100.00001750836539
100.00001990177739
100.00003403750459
100.0001175207069
100.00061053823006
100.0035220152539
100.02071530270057
100.12224700670998
100.72182131933421
104.26248132000396
125.1710980504175
125.17108082856335
104.26245671211174
100.72180740109978
100.12223331515635
100.02070127414834
100.00350793993967
100.00059642176869
100.00010339065118
100.00001990172551
100.00000576417654
100.00000337024058
100.000002964882
100.00000289624661
100.00000288462722
100.00000288266921
100.00000288239242
100.00000288266921
100.00000288462721
100.00000289624663
100.0000029648822
100.00000337023923
100.00000576417926
100.0000199017651
100.00010339063256
100.00059642312553
100.00350793492849
100.02070129339825
100.12223312796813
100.72180765598301
104.2624679822855
125.17108516293418
125.17107865684264
104.2624544638227
100.72180509648081
100.12223097198996
100.02069890678385
100.00350555862816
100.00059403319875
100.00010099866704
100.00001750831571
100.00000337023866
100.00000097613069
100.00000057072279
100.00000050207451
100.00000049045198
100.00000048849323
100.00000048821641
100.00000048849321
100.00000049045197
100.00000050207453
100.00000057072296
100.00000097612941
100.00000337024144
100.00001750835526
100.00010099864845
100.00059403455558
100.00350555361699
100.0206989260338
100.12223078480173
100.72180535136405
104.26246573399656
125.17108299121358
125.17107829076711
104.26245408477237
100.7218047076921
100.12223057639055
100.02069850675039
100.00350515593794
100.0005936290436
100.00010059377851
100.00001710309391
100.0000029648813
100.00000057072401
100.00000016530008
100.0000000966472
100.00000008502339
100.00000008306438
100.0000000827875
100.00000008306436
100.00000008502336
100.00000009664726
100.00000016530025
100.00000057072265
100.00000296488408
100.00001710313353
100.00010059375998
100.0005936304005
100.00350515092671
100.02069852600039
100.1222303892023
100.72180496257539
104.26246535494619
125.17108262513807
125.17107822904853
104.26245402085233
100.72180464209755
100.12223050959753
100.02069843915703
100.00350508784642
100.00059356066579
100.00010052524893
100.00001703449085
100.00000289624587
100.00000050207561
100.00000009664706
100.00000002799271
100.0000000163685
100.00000001440937
100.0000000141324
100.00000001440934
100.00000001636852
100.00000002799273
100.0000000966473
100.00000050207423
100.00000289624856
100.00001703453042
100.00010052523038
100.00059356202266
100.00350508283522
100.02069845840695
100.12223032240934
100.72180489698074
104.2624652910262
125.17108256341938
125.17107821864218
104.2624540100732
100.72180463103076
100.1222304983214
100.0206984277375
100.00350507633507
100.00059354909959
100.00010051365231
100.00001702287872
100.00000288462638
100.00000049045302
100.00000008502327
100.00000001636845
100.00000000474414
100.00000000278489
100.00000000250797
100.0000000027849
100.00000000474405
100.0000000163685
100.00000008502343
100.00000049045167
100.00000288462908
100.00001702291833
100.0001005136337
100.00059355045644
100.00350507132384
100.02069844698748
100.12223031113317
100.72180488591397
104.26246528024703
125.17108255301306
125.17107821689527
104.2624540082634
100.72180462917191
100.12223049642627
100.02069842581705
100.00350507439796
100.00059354715219
100.000100511699
100.00001702092229
100.00000288266835
100.0000004884943
100.00000008306428
100.0000000144094
100.00000000278492
100.00000000082572
100.0000000005488
100.00000000082574
100.0000000027849
100.00000001440932
100.00000008306445
100.00000048849294
100.00000288267113
100.00001702096182
100.00010051168047
100.00059354850903
100.00350506938676
100.020698445067
100.12223030923805
100.7218048840551
104.26246527843725
125.17108255126617
125.17107821664912
104.26245400800836
100.72180462890987
100.12223049615902
100.02069842554606
100.0035050741245
100.00059354687717
100.00010051142304
100.00001702064581
100.00000288239166
100.0000004882175
100.00000008278735
100.0000000141325
100.000000002508
100.0000000005488
100.00000000027184
100.0000000005488
100.0000000025079
100.00000001413244
100.00000008278751
100.00000048821609
100.00000288239438
100.00001702068539
100.00010051140451
100.00059354823405
100.00350506911329
100.02069844479604
100.12223030897076
100.72180488379313
104.2624652781822
125.17108255102008
125.17107821689527
104.26245400826339
100.72180462917191
100.12223049642625
100.02069842581702
100.00350507439795
100.00059354715218
100.00010051169902
100.00001702092227
100.00000288266834
100.00000048849431
100.00000008306431
100.00000001440935
100.00000000278493
100.00000000082575
100.00000000054884
100.00000000082574
100.00000000278489
100.00000001440932
100.00000008306444
100.00000048849299
100.00000288267108
100.00001702096179
100.00010051168042
100.00059354850912
100.00350506938676
100.020698445067
100.12223030923805
100.72180488405512
104.26246527843729
125.1710825512662
125.17107821864224
104.26245401007323
100.72180463103075
100.1222304983214
100.02069842773751
100.00350507633512
100.00059354909956
100.00010051365233
100.00001702287872
100.00000288462641
100.00000049045303
100.00000008502325
100.0000000163685
100.00000000474414
100.00000000278496
100.00000000250796
100.0000000027849
100.00000000474408
100.00000001636849
100.00000008502349
100.00000049045168
100.00000288462908
100.0000170229183
100.0001005136337
100.00059355045641
100.00350507132387
100.02069844698748
100.12223031113315
100.72180488591398
104.26246528024706
125.17108255301308
125.1710782290485
104.26245402085239
100.72180464209762
100.12223050959757
100.02069843915704
100.00350508784639
100.00059356066579
100.00010052524891
100.00001703449094
100.00000289624586
100.00000050207564
100.00000009664714
100.00000002799274
100.00000001636855
100.00000001440937
100.0000000141324
100.00000001440935
100.0000000163685
100.0000000279928
100.00000009664733
100.00000050207431
100.00000289624859
100.00001703453043
100.00010052523037
100.00059356202266
100.00350508283526
100.02069845840701
100.12223032240934
100.72180489698074
104.26246529102619
125.17108256341942
125.1710782907672
104.26245408477244
100.7218047076922
100.12223057639062
100.02069850675046
100.00350515593802
100.0005936290437
100.00010059377863
100.00001710309401
100.00000296488138
100.00000057072405
100.0000001653002
100.00000009664734
100.00000008502347
100.00000008306444
100.0000000827876
100.00000008306442
100.00000008502352
100.00000009664726
100.00000016530035
100.00000057072269
100.00000296488409
100.00001710313359
100.00010059376
100.00059363040057
100.00350515092687
100.02069852600044
100.12223038920237
100.72180496257546
104.26246535494629
125.17108262513807
125.17107865684365
104.26245446382372
100.72180509648182
100.12223097199097
100.02069890678487
100.00350555862916
100.00059403319976
100.00010099866807
100.00001750831677
100.00000337023972
100.00000097613173
100.00000057072384
100.0000005020756
100.00000049045302
100.0000004884943
100.0000004882174
100.00000048849425
100.00000049045293
100.0000005020756
100.00000057072398
100.00000097613041
100.0000033702424
100.0000175083563
100.00010099864946
100.00059403455661
100.003505553618
100.02069892603483
100.12223078480274
100.72180535136502
104.26246573399749
125.1710829912145
125.1710808285621
104.26245671211043
100.72180740109843
100.12223331515492
100.0207012741469
100.00350793993825
100.00059642176721
100.00010339064977
100.00001990172414
100.00000576417516
100.0000033702392
100.00000296488062
100.00000289624526
100.0000028846258
100.00000288266783
100.00000288239104
100.00000288266776
100.00000288462579
100.00000289624523
100.00000296488079
100.00000337023782
100.00000576417789
100.00001990176372
100.00010339063118
100.00059642312411
100.00350793492707
100.02070129339685
100.12223312796675
100.72180765598165
104.26246798228416
125.17108516293293
125.17109371607738
104.2624700498625
100.72182106448368
100.12224719393124
100.02071528348405
100.00352202029863
100.00061053690678
100.00011752075909
100.00003403749875
100.00001990180839
100.00001750840046
100.00001710317744
100.00001703457451
100.00001702296238
100.00001702100592
100.00001702072949
100.0000170210059
100.00001702296234
100.00001703457457
100.00001710317767
100.0000175083991
100.00001990181107
100.00003403753828
100.00011752074056
100.00061053826363
100.00352201528752
100.02071530273403
100.12224700674321
100.72182131936682
104.26248132003579
125.1710980504483
125.17117021012443
104.26254919937146
100.72190207706116
100.12232940274598
100.02079817708737
100.00360526547126
100.00069393892484
100.00020098374759
100.00011752067319
100.00010339064802
100.00010099866572
100.00010059377608
100.00010052524651
100.00010051364995
100.00010051169671
100.00010051142071
100.00010051169669
100.00010051364998
100.00010052524658
100.00010059377625
100.0001009986644
100.00010339065076
100.00011752071269
100.00020098372903
100.00069394028162
100.00360526046029
100.02079819633708
100.12232921555857
100.72190233194418
104.26256046954235
125.17117454449539
125.17162445535665
104.26301898725993
100.72238252613671
100.12281632768791
100.02128861872735
100.00409734460759
100.00118667649939
100.00069394188841
100.00061053978474
100.00059642472932
100.00059403616129
100.000593632005
100.00059356362728
100.00059355206112
100.00059355011368
100.00059354983864
100.00059355011366
100.00059355206108
100.0005935636273
100.00059363200525
100.00059403616
100.00059642473205
100.00061053982427
100.00069394186988
100.00118667785576
100.00409733959732
100.02128863797614
100.12281614050391
100.72238278101847
104.26303025741646
125.17162878972776
125.1743226056968
104.26580875573732
100.72523196535575
100.12570042905331
100.02418971812718
100.00700558187644
100.00409734157833
100.00360526540183
100.00352202014345
100.00350793986696
100.00350555855735
100.00350515586602
100.00350508777453
100.00350507626322
100.00350507432613
100.00350507405263
100.00350507432616
100.00350507626318
100.00350508777458
100.00350515586614
100.00350555855604
100.00350793986976
100.0035220201829
100.00360526538329
100.00409734293335
100.00700557686882
100.02418973737147
100.12570024188635
100.72523222023088
104.26582002581186
125.17432694006837
125.19036216367839
104.2823788956237
100.74213658112322
100.1427798908392
100.0413468891457
100.024189714184
100.02128861176183
100.02079817307346
100.02071527938477
100.02070127013114
100.02069890276853
100.02069850273392
100.0206984351406
100.02069842372111
100.0206984218007
100.0206984215297
100.02069842180069
100.02069842372116
100.02069843514066
100.0206985027341
100.02069890276725
100.02070127013386
100.02071527942404
100.02079817305496
100.02128861311321
100.02418970918538
100.0413469083708
100.14277970375333
100.74213683596275
104.28239016522532
125.190366498062
125.28574354995764
104.38088674750979
100.84241692376159
100.24391023414661
100.14277987052878
100.12570040480281
100.12281630043178
100.12232937842265
100.12224716952318
100.12223329082966
100.12223094766513
100.12223055206461
100.12223048527167
100.12223047399551
100.12223047210045
100.12223047183318
100.12223047210045
100.12223047399551
100.12223048527169
100.12223055206478
100.12223094766381
100.12223329083233
100.122247169562
100.12232937840426
100.1228163017747
100.1257003998286
100.14277988968793
100.24391004740684
100.84241717841539
104.38089801448528
125.28574788432691
125.85391854325037
104.96660673694828
101.43748241638542
100.84241680431413
100.7421364413741
100.72523182168112
100.72238237948974
100.7219019333101
100.72182092064901
100.72180725734536
100.7218049527282
100.72180456393839
100.72180449834381
100.72180448727711
100.72180448541826
100.72180448515621
100.72180448541828
100.72180448727707
100.7218044983439
100.72180456393856
100.72180495272688
100.72180725734796
100.7218209206873
100.721901933292
100.72238238081609
100.72523181676011
100.74213646036218
100.84241661877844
101.43748267013412
104.96661798925328
125.85392287799512
129.24000670685484
108.4560220792776
104.96662809103091
104.38090801159277
104.28240014486713
104.26583000205524
104.26304023083078
104.26257044580494
104.26249129621925
104.26247795854775
104.2624757102606
104.26247533120913
104.2624752672892
104.26247525651014
104.26247525470026
104.26247525444522
104.2624752547003
104.26247525651009
104.26247526728926
104.26247533120934
104.26247571025935
104.26247795855025
104.26249129625668
104.26257044578732
104.26304023212887
104.26582999723317
104.2824001635076
104.38090782907375
104.96662834155957
108.45603325533929
129.24001103800822
149.55694755129548
129.23999433191148
125.85392686075747
125.28575175242311
125.19037034690777
125.17433078520442
125.17163263205563
125.17117838956521
125.17110189543938
125.17108900800106
125.17108683628211
125.17108647020548
125.17108640848697
125.1710863980807
125.17108639633372
125.17108639608759
125.17108639633376
125.17108639808072
125.17108640848704
125.17108647020565
125.17108683628085
125.1710890080035
125.17110189547562
125.1711783895481
125.17163263331102
125.1743307805377
125.19037036495543
125.28575157544918
125.85392710386935
129.24000523184418
149.55695180811628

