# vtk DataFile Version 2.0
Unstructured Grid Example
ASCII
DATASET UNSTRUCTURED_GRID

POINTS 961 float
0.100000001 0.00499999989 0
0.0966666639 0.00499999989 0
0.0933333337 0.00499999989 0
0.0900000036 0.00499999989 0
0.086666666 0.00499999989 0
0.0833333358 0.00499999989 0
0.0799999982 0.00499999989 0
0.0766666681 0.00499999989 0
0.0733333305 0.00499999989 0
0.0700000003 0.00499999989 0
0.0666666701 0.00499999989 0
0.0633333325 0.00499999989 0
0.0599999987 0.00499999989 0
0.0566666685 0.00499999989 0
0.0533333346 0.00499999989 0
0.0500000007 0.00499999989 0
0.0466666669 0.00499999989 0
0.043333333 0.00499999989 0
0.0399999991 0.00499999989 0
0.0366666652 0.00499999989 0
0.0333333351 0.00499999989 0
0.0299999993 0.00499999989 0
0.0266666673 0.00499999989 0
0.0233333334 0.00499999989 0
0.0199999996 0.00499999989 0
0.0166666675 0.00499999989 0
0.0133333337 0.00499999989 0
0.00999999978 0.00499999989 0
0.00666666683 0.00499999989 0
0.00333333341 0.00499999989 0
0 0.00499999989 0
0.100000001 0.00166666671 0
0.0966666639 0.00166666671 0
0.0933333337 0.00166666671 0
0.0900000036 0.00166666671 0
0.086666666 0.00166666671 0
0.0833333358 0.00166666671 0
0.0799999982 0.00166666671 0
0.0766666681 0.00166666671 0
0.0733333305 0.00166666671 0
0.0700000003 0.00166666671 0
0.0666666701 0.00166666671 0
0.0633333325 0.00166666671 0
0.0599999987 0.00166666671 0
0.0566666685 0.00166666671 0
0.0533333346 0.00166666671 0
0.0500000007 0.00166666671 0
0.0466666669 0.00166666671 0
0.043333333 0.00166666671 0
0.0399999991 0.00166666671 0
0.0366666652 0.00166666671 0
0.0333333351 0.00166666671 0
0.0299999993 0.00166666671 0
0.0266666673 0.00166666671 0
0.0233333334 0.00166666671 0
0.0199999996 0.00166666671 0
0.0166666675 0.00166666671 0
0.0133333337 0.00166666671 0
0.00999999978 0.00166666671 0
0.00666666683 0.00166666671 0
0.00333333341 0.00166666671 0
0 0.00166666671 0
0.100000001 -0.00166666671 0
0.0966666639 -0.00166666671 0
0.0933333337 -0.00166666671 0
0.0900000036 -0.00166666671 0
0.086666666 -0.00166666671 0
0.0833333358 -0.00166666671 0
0.0799999982 -0.00166666671 0
0.0766666681 -0.00166666671 0
0.0733333305 -0.00166666671 0
0.0700000003 -0.00166666671 0
0.0666666701 -0.00166666671 0
0.0633333325 -0.00166666671 0
0.0599999987 -0.00166666671 0
0.0566666685 -0.00166666671 0
0.0533333346 -0.00166666671 0
0.0500000007 -0.00166666671 0
0.0466666669 -0.00166666671 0
0.043333333 -0.00166666671 0
0.0399999991 -0.00166666671 0
0.0366666652 -0.00166666671 0
0.0333333351 -0.00166666671 0
0.0299999993 -0.00166666671 0
0.0266666673 -0.00166666671 0
0.0233333334 -0.00166666671 0
0.0199999996 -0.00166666671 0
0.0166666675 -0.00166666671 0
0.0133333337 -0.00166666671 0
0.00999999978 -0.00166666671 0
0.00666666683 -0.00166666671 0
0.00333333341 -0.00166666671 0
0 -0.00166666671 0
0.100000001 -0.00499999989 0
0.0966666639 -0.00499999989 0
0.0933333337 -0.00499999989 0
0.0900000036 -0.00499999989 0
0.086666666 -0.00499999989 0
0.0833333358 -0.00499999989 0
0.0799999982 -0.00499999989 0
0.0766666681 -0.00499999989 0
0.0733333305 -0.00499999989 0
0.0700000003 -0.00499999989 0
0.0666666701 -0.00499999989 0
0.0633333325 -0.00499999989 0
0.0599999987 -0.00499999989 0
0.0566666685 -0.00499999989 0
0.0533333346 -0.00499999989 0
0.0500000007 -0.00499999989 0
0.0466666669 -0.00499999989 0
0.043333333 -0.00499999989 0
0.0399999991 -0.00499999989 0
0.0366666652 -0.00499999989 0
0.0333333351 -0.00499999989 0
0.0299999993 -0.00499999989 0
0.0266666673 -0.00499999989 0
0.0233333334 -0.00499999989 0
0.0199999996 -0.00499999989 0
0.0166666675 -0.00499999989 0
0.0133333337 -0.00499999989 0
0.00999999978 -0.00499999989 0
0.00666666683 -0.00499999989 0
0.00333333341 -0.00499999989 0
0 -0.00499999989 0
0.100000001 -0.00833333377 0
0.0966666639 -0.00833333377 0
0.0933333337 -0.00833333377 0
0.0900000036 -0.00833333377 0
0.086666666 -0.00833333377 0
0.0833333358 -0.00833333377 0
0.0799999982 -0.00833333377 0
0.0766666681 -0.00833333377 0
0.0733333305 -0.00833333377 0
0.0700000003 -0.00833333377 0
0.0666666701 -0.00833333377 0
0.0633333325 -0.00833333377 0
0.0599999987 -0.00833333377 0
0.0566666685 -0.00833333377 0
0.0533333346 -0.00833333377 0
0.0500000007 -0.00833333377 0
0.0466666669 -0.00833333377 0
0.043333333 -0.00833333377 0
0.0399999991 -0.00833333377 0
0.0366666652 -0.00833333377 0
0.0333333351 -0.00833333377 0
0.0299999993 -0.00833333377 0
0.0266666673 -0.00833333377 0
0.0233333334 -0.00833333377 0
0.0199999996 -0.00833333377 0
0.0166666675 -0.00833333377 0
0.0133333337 -0.00833333377 0
0.00999999978 -0.00833333377 0
0.00666666683 -0.00833333377 0
0.00333333341 -0.00833333377 0
0 -0.00833333377 0
0.100000001 -0.0116666667 0
0.0966666639 -0.0116666667 0
0.0933333337 -0.0116666667 0
0.0900000036 -0.0116666667 0
0.086666666 -0.0116666667 0
0.0833333358 -0.0116666667 0
0.0799999982 -0.0116666667 0
0.0766666681 -0.0116666667 0
0.0733333305 -0.0116666667 0
0.0700000003 -0.0116666667 0
0.0666666701 -0.0116666667 0
0.0633333325 -0.0116666667 0
0.0599999987 -0.0116666667 0
0.0566666685 -0.0116666667 0
0.0533333346 -0.0116666667 0
0.0500000007 -0.0116666667 0
0.0466666669 -0.0116666667 0
0.043333333 -0.0116666667 0
0.0399999991 -0.0116666667 0
0.0366666652 -0.0116666667 0
0.0333333351 -0.0116666667 0
0.0299999993 -0.0116666667 0
0.0266666673 -0.0116666667 0
0.0233333334 -0.0116666667 0
0.0199999996 -0.0116666667 0
0.0166666675 -0.0116666667 0
0.0133333337 -0.0116666667 0
0.00999999978 -0.0116666667 0
0.00666666683 -0.0116666667 0
0.00333333341 -0.0116666667 0
0 -0.0116666667 0
0.100000001 -0.0149999997 0
0.0966666639 -0.0149999997 0
0.0933333337 -0.0149999997 0
0.0900000036 -0.0149999997 0
0.086666666 -0.0149999997 0
0.0833333358 -0.0149999997 0
0.0799999982 -0.0149999997 0
0.0766666681 -0.0149999997 0
0.0733333305 -0.0149999997 0
0.0700000003 -0.0149999997 0
0.0666666701 -0.0149999997 0
0.0633333325 -0.0149999997 0
0.0599999987 -0.0149999997 0
0.0566666685 -0.0149999997 0
0.0533333346 -0.0149999997 0
0.0500000007 -0.0149999997 0
0.0466666669 -0.0149999997 0
0.043333333 -0.0149999997 0
0.0399999991 -0.0149999997 0
0.0366666652 -0.0149999997 0
0.0333333351 -0.0149999997 0
0.0299999993 -0.0149999997 0
0.0266666673 -0.0149999997 0
0.0233333334 -0.0149999997 0
0.0199999996 -0.0149999997 0
0.0166666675 -0.0149999997 0
0.0133333337 -0.0149999997 0
0.00999999978 -0.0149999997 0
0.00666666683 -0.0149999997 0
0.00333333341 -0.0149999997 0
0 -0.0149999997 0
0.100000001 -0.0183333326 0
0.0966666639 -0.0183333326 0
0.0933333337 -0.0183333326 0
0.0900000036 -0.0183333326 0
0.086666666 -0.0183333326 0
0.0833333358 -0.0183333326 0
0.0799999982 -0.0183333326 0
0.0766666681 -0.0183333326 0
0.0733333305 -0.0183333326 0
0.0700000003 -0.0183333326 0
0.0666666701 -0.0183333326 0
0.0633333325 -0.0183333326 0
0.0599999987 -0.0183333326 0
0.0566666685 -0.0183333326 0
0.0533333346 -0.0183333326 0
0.0500000007 -0.0183333326 0
0.0466666669 -0.0183333326 0
0.043333333 -0.0183333326 0
0.0399999991 -0.0183333326 0
0.0366666652 -0.0183333326 0
0.0333333351 -0.0183333326 0
0.0299999993 -0.0183333326 0
0.0266666673 -0.0183333326 0
0.0233333334 -0.0183333326 0
0.0199999996 -0.0183333326 0
0.0166666675 -0.0183333326 0
0.0133333337 -0.0183333326 0
0.00999999978 -0.0183333326 0
0.00666666683 -0.0183333326 0
0.00333333341 -0.0183333326 0
0 -0.0183333326 0
0.100000001 -0.0216666665 0
0.0966666639 -0.0216666665 0
0.0933333337 -0.0216666665 0
0.0900000036 -0.0216666665 0
0.086666666 -0.0216666665 0
0.0833333358 -0.0216666665 0
0.0799999982 -0.0216666665 0
0.0766666681 -0.0216666665 0
0.0733333305 -0.0216666665 0
0.0700000003 -0.0216666665 0
0.0666666701 -0.0216666665 0
0.0633333325 -0.0216666665 0
0.0599999987 -0.0216666665 0
0.0566666685 -0.0216666665 0
0.0533333346 -0.0216666665 0
0.0500000007 -0.0216666665 0
0.0466666669 -0.0216666665 0
0.043333333 -0.0216666665 0
0.0399999991 -0.0216666665 0
0.0366666652 -0.0216666665 0
0.0333333351 -0.0216666665 0
0.0299999993 -0.0216666665 0
0.0266666673 -0.0216666665 0
0.0233333334 -0.0216666665 0
0.0199999996 -0.0216666665 0
0.0166666675 -0.0216666665 0
0.0133333337 -0.0216666665 0
0.00999999978 -0.0216666665 0
0.00666666683 -0.0216666665 0
0.00333333341 -0.0216666665 0
0 -0.0216666665 0
0.100000001 -0.0250000004 0
0.0966666639 -0.0250000004 0
0.0933333337 -0.0250000004 0
0.0900000036 -0.0250000004 0
0.086666666 -0.0250000004 0
0.0833333358 -0.0250000004 0
0.0799999982 -0.0250000004 0
0.0766666681 -0.0250000004 0
0.0733333305 -0.0250000004 0
0.0700000003 -0.0250000004 0
0.0666666701 -0.0250000004 0
0.0633333325 -0.0250000004 0
0.0599999987 -0.0250000004 0
0.0566666685 -0.0250000004 0
0.0533333346 -0.0250000004 0
0.0500000007 -0.0250000004 0
0.0466666669 -0.0250000004 0
0.043333333 -0.0250000004 0
0.0399999991 -0.0250000004 0
0.0366666652 -0.0250000004 0
0.0333333351 -0.0250000004 0
0.0299999993 -0.0250000004 0
0.0266666673 -0.0250000004 0
0.0233333334 -0.0250000004 0
0.0199999996 -0.0250000004 0
0.0166666675 -0.0250000004 0
0.0133333337 -0.0250000004 0
0.00999999978 -0.0250000004 0
0.00666666683 -0.0250000004 0
0.00333333341 -0.0250000004 0
0 -0.0250000004 0
0.100000001 -0.0283333343 0
0.0966666639 -0.0283333343 0
0.0933333337 -0.0283333343 0
0.0900000036 -0.0283333343 0
0.086666666 -0.0283333343 0
0.0833333358 -0.0283333343 0
0.0799999982 -0.0283333343 0
0.0766666681 -0.0283333343 0
0.0733333305 -0.0283333343 0
0.0700000003 -0.0283333343 0
0.0666666701 -0.0283333343 0
0.0633333325 -0.0283333343 0
0.0599999987 -0.0283333343 0
0.0566666685 -0.0283333343 0
0.0533333346 -0.0283333343 0
0.0500000007 -0.0283333343 0
0.0466666669 -0.0283333343 0
0.043333333 -0.0283333343 0
0.0399999991 -0.0283333343 0
0.0366666652 -0.0283333343 0
0.0333333351 -0.0283333343 0
0.0299999993 -0.0283333343 0
0.0266666673 -0.0283333343 0
0.0233333334 -0.0283333343 0
0.0199999996 -0.0283333343 0
0.0166666675 -0.0283333343 0
0.0133333337 -0.0283333343 0
0.00999999978 -0.0283333343 0
0.00666666683 -0.0283333343 0
0.00333333341 -0.0283333343 0
0 -0.0283333343 0
0.100000001 -0.0316666663 0
[...]
POINT_DATA 961
SCALARS Temp float 1
LOOKUP_TABLE default
259.1650791551302
227.37235627201088
206.50098192128198
194.283457762747
187.88751925475455
184.8713807161797
183.57778940090134
183.0679139419356
182.881325604316
182.8173336953214
182.7965944059105
182.79019693441714
182.78830717636265
182.78777034325074
182.78762513753819
182.78759593850216
182.78762513752915
182.78777034321493
182.78830717740308
182.7901969382247
182.79659439165363
182.81733371096644
182.881325716102
183.06791391178348
183.57779021373017
184.87137942253972
187.88752102601708
194.28345154815526
206.50098422836126
227.3723849635583
259.1650788494013
227.37238708423274
194.5040109971975
172.9240402426417
160.28978340756424
153.67447247918773
150.55426002388583
149.21575675679847
148.68807166776023
148.4949281650568
148.4286758917582
148.40720033829086
148.40057469248572
148.39861724467954
148.39806110702122
148.39791066150147
148.397880406247
148.39791066149195
148.3980611069842
148.39861724575738
148.40057469642926
148.4072003235269
148.4286759079571
148.4949282807779
148.68807163654853
149.21575759791844
150.55425868544884
153.67447431136011
160.28977698031312
172.9240426281699
194.50404066098173
227.37238676808107
206.50098567595825
172.92401157766673
150.87266340087834
137.95752377042763
131.19204273303575
127.99938119552881
126.62907448829723
126.08856583837284
125.89062714122645
125.8226968371628
125.80066722917653
125.79386772738464
125.79185811400413
125.79128694438909
125.79113238138983
125.7911012908909
125.79113238138022
125.79128694435101
125.79185811511093
125.79386773143226
125.80066721402893
125.82269685377523
125.89062725984223
126.08856580638536
126.62907534959031
127.99937982559638
131.19204460720744
137.95751719854027
150.87266583882212
172.92404188474316
206.50098535281137
194.28345189556106
160.28974438332747
137.95751354665848
124.87202190899139
118.01353454019186
114.77496620533775
113.38403140627479
112.83501303644691
112.63382250292261
112.5647310657667
112.54231090016658
112.53538675441149
112.53333916134216
112.53275689387577
112.5325992536373
112.53256753363505
112.53259925362752
112.53275689383698
112.53333916247001
112.53538675853416
112.54231088474644
112.56473108266769
112.63382262351644
112.83501300393216
113.38403228077756
114.77496481517292
118.0135364406339
124.87201524830351
137.95751601602066
160.28977507098776
194.283451568233
187.8875214342792
153.6744415605599
131.19204099211527
118.01354321324898
111.10298195867048
107.83798563280361
106.43482810386999
105.88062153749712
105.67739353271834
105.60755574496918
105.58487855257557
105.57787059273598
105.57579695588649
105.5752069422591
105.57504712063643
105.57501494963346
105.57504712062656
105.57520694221984
105.57579695702886
105.57787059690938
105.58487853697454
105.60755576205737
105.67739365456328
105.88062150465107
106.43482898629414
107.83798423079
111.10298387399986
118.01353650336127
131.19204347839388
153.6744724499918
187.8875211047378
184.87138030121244
150.55422631774573
127.99937669532557
114.7749721168912
107.83798281632606
104.55914819891488
103.1493757930517
102.59226651363468
102.38786117838463
102.3175787438077
102.29474401513124
102.28768332630875
102.28559291010049
102.28499779702615
102.28483651206909
102.28480403460964
102.28483651205902
102.28499779698639
102.28559291125222
102.28768333051437
102.29474399941799
102.31757876100896
102.38786130096113
102.59226648059634
103.14937667982369
104.55914679057263
107.83798473931408
114.77496538232332
127.99937918982934
150.55425730365005
184.87137997063164
183.57779055158557
149.21572462562514
126.62907164075331
113.38403901219921
106.43482698164068
103.14937750090807
101.7363285189658
101.177727832892
100.97269527755383
100.90216756611505
100.87924304303311
100.87215137210531
100.87005081790807
100.86945254462465
100.86929033249895
100.86925765792077
100.86929033248875
100.8694525445846
100.8700508190656
100.87215137633008
100.8792430272548
100.90216758337955
100.9726954005252
101.17772779975056
101.73632940792513
103.14937608947446
106.43482890822187
113.38403226635532
126.6290741388974
149.21575565349667
183.57779022056857
183.06791432809433
148.68803872745943
126.08856217836275
112.8350198244396
105.88061958359171
102.59226738817046
101.17772699569782
100.61842084491114
100.41307984009067
100.34242682551336
100.31945472860848
100.31234607222184
100.31023978108846
100.30963966687915
100.30947690076304
100.30944410636093
100.30947690075281
100.30963966683903
100.3102397822494
100.31234607645712
100.3194547127953
100.34242684281061
100.41307996325914
100.6184208117185
101.1777278856692
102.59226597534943
105.88062151172008
112.83501307386761
126.08856467798665
148.68806977210562
183.06791399691167
182.88132607390222
148.4948953044637
125.89062356890274
112.63382938280083
105.67739166922127
102.38786214490288
100.97269453189884
100.41307993220231
100.20759853658056
100.13688615192878
100.11389061446188
100.10677327083893
100.10466394101036
100.10406281969594
100.10389974178496
100.10386687863776
100.10389974177477
100.1040628196557
100.10466394217303
100.10677327507975
100.11389059863126
100.13688616924183
100.20759865984016
100.41307989898611
100.97269542230308
102.38786073150641
105.67739359796579
112.63382263039408
125.89062606908462
148.4949263553313
182.88132574266174
182.8173340280143
148.42864288713764
125.82269311926932
112.56473779861241
105.6075537320088
102.31757956033648
100.90216666968396
100.34242676676774
100.1368860009246
100.0661474570314
100.04314116145369
100.03601966984385
100.03390883338764
100.03330719486993
100.03314395178599
100.03311105145096
100.0331439517758
100.03330719482977
100.03390883455123
100.03601967408743
100.04314114561484
100.06614747435165
100.13688612422334
100.34242673354144
100.90216756026014
102.31757814671803
105.60755566098193
112.56473104554121
125.8226956196481
148.428673940166
182.81733369675527
182.79659472267653
148.4071673164189
125.80066349426008
112.54231761601216
105.58487652210775
102.29474481416041
100.87924212892038
100.31945465220323
100.11389044576504
100.04314114377144
100.02013023717923
100.01300689353523
100.01089535724066
100.01029346932656
100.01013014390455
100.01009722461275
100.01013014389437
100.01029346928637
100.01089535840467
100.01300689777997
100.02013022133684
100.04314116109471
100.11389056907943
100.31945461897303
100.87924301956056
102.29474340046168
105.5848784511607
112.5423108627145
125.80066599470442
148.40719837015575
182.79659439141193
182.79019726498547
148.400541684671
125.79386400710166
112.53539348525985
105.57786857734762
102.28768414057116
100.87215047325117
100.31234601113057
100.10677311746788
100.036019667503
100.0130069088818
100.00588279008555
100.00377094875572
100.00316894782938
100.00300558377491
100.00297265537856
100.00300558376478
100.00316894778916
100.00377094991994
100.00588279433079
100.01300689303788
100.03601968482741
100.10677324078831
100.31234597789893
100.87215136391382
102.28768272684503
105.57787050642688
112.53538673188915
125.79386650756675
148.40057273862857
182.79019693371933
182.78830750497562
148.39858423476923
125.79185439163327
112.53334589009626
105.5757949383473
102.2855937222098
100.87004991687863
100.31023971782372
100.10466378546111
100.03390882886993
100.01089537041037
100.00377094657807
100.00165898023562
100.0010569311281
100.00089355000614
100.00086061749045
100.00089354999602
100.00105693108793
100.00165898139987
100.00377095082361
100.01089535456585
100.03390884619476
100.10466390878362
100.3102396845916
100.87005080754871
102.28559230847482
105.57579686743479
112.53333913670315
125.79185689210448
148.3986152887929
182.78830717370894
182.78777067099622
148.39802809619215
125.7912832210927
112.53276362169605
105.57520492376477
102.28499860817645
100.86945164262734
100.3096396026458
100.10406266317594
100.03330718938147
100.01029348152547
100.00316894468054
100.00105693015688
100.0004548617446
100.0002914735392
100.00025853927333
100.0002914735291
100.00045486170433
100.00105693132113
100.003168948926
100.01029346568068
100.03330720670645
100.10406278649917
100.30963956941349
100.8694525332997
102.28499719443862
105.57520685285469
112.53275686829619
125.79128572156567
148.3980591502346
182.78777033972943
182.7876254653739
148.39787765076022
125.7911286581886
112.5326059815573
105.57504510224055
102.28483732331998
100.86928943060157
100.30947683663062
100.10389958536584
100.03314394639872
100.01013015620475
100.00300558072738
100.00089354913626
100.00029147364056
100.00012808275197
100.00009514780895
100.00012808274184
100.00029147360033
100.00089355030042
100.00300558497275
100.01013014035988
100.03314396372376
100.10389970868918
100.3094768033982
100.86929032127462
102.28483590958142
105.57504703133115
112.53259922815556
125.7911311586621
148.39790870480778
182.7876251341071
182.78759626638046
148.3978473955489
125.79109756773477
112.53257426160162
105.57501293128436
102.28480484590811
100.86925675607094
100.3094440422764
100.1038667222666
100.03311104611186
100.01009723696103
100.00297265237904
100.00086061666869
100.00025853942277
100.00009514785708
100.0000622127409
100.00009514784696
100.00025853938241
100.00086061783283
100.00297265662442
100.01009722111617
100.03311106343686
100.10386684558996
100.30944400904387
100.8692576467442
102.28480343216937
105.57501486037508
112.53256750819953
125.79110006820842
148.3978784495975
182.78759593511376
182.78762546539974
148.39787765078697
125.79112865821608
112.53260598158535
105.57504510226896
102.28483732334867
100.86928943063047
100.3094768366596
100.1038995853949
100.0331439464278
100.01013015623384
100.00300558075645
100.00089354916534
100.00029147366966
100.00012808278112
100.00009514783815
100.00012808277087
100.00029147362936
100.00089355032954
100.00300558500187
100.01013014038902
100.03314396375274
100.10389970871815
100.30947680342709
100.86929032130355
102.28483590961014
105.57504703135959
112.5325992281836
125.79113115868955
148.39790870483466
182.78762513413298
182.78777067108666
148.39802809628574
125.79128322118875
112.53276362179396
105.57520492386405
102.28499860827668
100.86945164272805
100.30963960274693
100.10406266327719
100.03330718948284
100.01029348162682
100.00316894478189
100.00105693025826
100.000454861846
100.00029147364062
100.00025853937466
100.00029147363044
100.00045486180566
100.0010569314225
100.00316894902744
100.01029346578196
100.03330720680768
100.1040627866002
100.30963956951437
100.86945253340035
102.28499719453887
105.57520685295395
112.53275686839412
125.79128572166171
148.39805915032812
182.78777033981973
182.78830750529528
148.39858423510037
125.79185439197322
112.53334589044269
105.57579493869817
102.28559372256348
100.87004991723414
100.31023971818026
100.10466378581829
100.0339088292273
100.01089537076781
100.00377094693567
100.00165898059312
100.00105693148566
100.00089355036366
100.0008606178479
100.00089355035344
100.00105693144539
100.0016589817574
100.00377095118102
100.01089535492326
100.03390884655201
100.10466390914051
100.31023968494796
100.87005080790411
102.28559230882843
105.57579686778563
112.53333913704941
125.79185689244433
148.39861528912377
182.78830717402843
182.7901972661886
148.40054168591703
125.79386400838061
112.53539348656244
105.5778685786662
102.28768414189994
100.872150474586
100.31234601246875
100.10677311880782
100.0360196688437
100.01300691022287
100.00588279142683
100.00377095009705
100.00316894917063
100.00300558511611
100.00297265671976
100.00300558510598
100.00316894913047
100.00377095126115
100.00588279567195
100.01300689437886
100.03601968616802
100.10677324212806
100.31234597923688
100.8721513652485
102.28768272817375
105.57787050774532
112.5353867331916
125.79386650884548
148.40057273987463
182.79019693492225
182.79659473344302
148.4071673275683
125.80066350569892
112.54231762765616
105.584876533888
102.29474482602495
100.87924214083351
100.31945466414257
100.1138904577174
100.04314115572993
100.02013024914035
100.01300690549745
100.01089536920325
100.01029348128921
100.01013015586722
100.0100972365754
100.01013015585707
100.01029348124894
100.01089537036721
100.01300690974212
100.02013023329785
100.04314117305306
100.11389058103165
100.31945463091228
100.87924303147373
102.29474341232616
105.58487846294086
112.54231087435842
125.80066600614306
148.4071983813048
182.79659440217827
182.81733401968995
148.42864287851836
125.82269311042928
112.56473778961788
105.60755372291354
102.3175795511802
100.90216666049315
100.3424267575591
100.1368859917072
100.06614744781004
100.04314115223066
100.03601966062016
100.0339088241636
100.03330718564573
100.0331439425618
100.03311104222674
100.03314394255158
100.03330718560558
100.03390882532716
100.03601966486362
100.04314113639175
100.06614746513021
100.1368861150059
100.34242672433278
100.9021675510694
102.31757813756168
105.6075556518867
112.56473103654663
125.82269561080791
148.42867393154648
182.81733368843078
182.88132616977995
148.4948954037173
125.89062367064044
112.63382948623686
105.6773917737326
102.38786225004343
100.97269463737953
100.41308003785291
100.20759864231002
100.13688625769198
100.11389072023881
100.10677337662084
100.10466404679406
100.10406292548018
100.10389984756944
100.10386698442234
100.10389984755928
100.10406292544006
100.10466404795683
100.10677338086175
100.11389070440812
100.13688627500512
100.20759876556954
100.41308000463673
100.97269552778367
102.38786083664696
105.6773937024771
112.63382273383014
125.89062617082226
148.49492645458474
182.88132583853957
183.06791425584115
148.68803865267293
126.0885621017329
112.83501974656866
105.88061950494968
102.59226730908716
101.17772691638184
100.61842076548194
100.41307976061051
100.34242674601182
100.3194546490985
100.31234599270874
100.31023970157423
100.30963958736457
100.30947682124842
100.3094440268463
100.30947682123832
100.30963958732461
100.3102397027353
100.31234599694419
100.31945463328547
100.34242676330915
100.41307988377893
100.6184207322893
101.17772780635319
102.59226589626611
105.88062143307802
112.83501299599666
126.08856460135696
148.68806969731907
183.06791392465846
183.57779150291537
149.21572561006883
126.62907264881375
113.38404003572889
106.43482801445063
103.14937853881376
101.73632955943678
101.17772887455087
100.97269631972098
100.90216860848436
100.87924408547758
100.87215241457615
100.87005186038749
100.86945358710689
100.86929137498204
100.86925870040402
100.86929137497198
100.86945358706703
100.87005186154522
100.87215241880106
100.87924406969942
100.9021686257488
100.9726964426923
101.17772884140925
101.736330448396
103.14937712738012
106.43482994103175
113.38403328988512
126.62907514695779
149.21575663794036
183.5777911718981
184.87138091662726
150.55422695442167
127.99937734685169
114.77497277786944
107.83798348277517
104.55914886824586
103.14937646376896
102.59226718496417
102.38786184996395
102.31757941548193
102.29474468683934
102.28768399802819
102.28559358182336
102.28499846875022
102.28483718379356
102.28480470633419
102.28483718378358
102.2849984687106
102.28559358297534
102.28768400223383
102.2947446711261
102.3175794326832
102.38786197254034
102.59226715192561
103.1493773505407
104.55914745990353
107.83798540576312
114.77496604330153
127.99937984135552
150.5542579403259
184.87138058604637
187.88751909325208
153.67443913896707
131.19203851484752
118.01354070104978
111.10297942659916
107.83798309046315
106.434825556688
105.88061898821981
105.67739098260238
105.6075531945404
105.58487600203732
105.5778680421613
105.57579440530036
105.57520439166954
105.57504457004595
105.57501239904273
105.57504457003606
105.57520439163036
105.57579440644282
105.5778680463348
105.58487598643629
105.6075532116286
105.67739110444717
105.88061895537346
106.434826439112
107.8379816884493
111.1029813419283
118.01353399116199
131.1920410011261
153.67447002839893
187.88751876371055
194.2834569552534
160.289749616044
137.9575188968349
124.87202733110381
118.0135400020445
114.7749716870642
113.38403689705406
112.83501853101181
112.63382799895318
112.56473656232687
112.5423163969069
112.53539225120991
112.5333446581584
112.53276239069721
112.53260475046024
112.53257303045827
112.53260475045052
112.53276239065848
112.53334465928624
112.53539225533248
112.54231638148677
112.56473657922774
112.63382811954655
112.83501849849668
113.3840377715564
114.77497029689889
118.01354190248628
124.87202067041585
137.9575213661968
160.28978030370394
194.28345662792526
206.5009800090052
172.9240057177147
150.87265741140945
137.9575177028789
131.1920366231731
127.99937506495695
126.62906834850466
126.08855969481239
125.89062099623973
125.8226906916713
125.80066108351684
125.7938615816716
125.79185196827503
125.79128079865522
125.79112623565463
125.79109514515531
125.79112623564502
125.79128079861717
125.79185196938172
125.79386158571916
125.80066106836908
125.82269070828366
125.89062111485524
126.08855966282451
126.62906920979732
127.99937369502402
131.19203849734436
137.95751113099135
150.87265984935297
172.92403602479106
206.50097968585814
227.37241110015609
194.50403582695753
172.9240656109482
160.28980909452466
153.6744983351025
150.55428596058417
149.21578272863766
148.68809765364378
148.4949541561483
148.42870188465818
148.40722633178356
148.4006006861632
148.39864323841223
148.39808710076966
148.39793665525386
148.3979064000005
148.3979366552447
148.39808710073265
148.39864323949007
148.40060069010676
148.40722631701954
148.42870190085694
148.49495427186926
148.6880976224318
149.21578356975735
150.55428462214692
153.67450016727457
160.2898026672734
172.9240679964759
194.5040654907407
227.37241078400413
259.16507893364246
227.37235604304945
206.5009816874465
194.28345752610372
187.88751901668425
184.87138047746566
183.5777891619264
183.0679137028643
182.8813253652117
182.81733345620663
182.79659416679254
182.79019669529833
182.78830693724342
182.78777010413157
182.78762489841895
182.78759569938288
182.78762489840997
182.7877701040958
182.78830693828405
182.79019669910582
182.79659415253573
182.8173334718516
182.88132547699766
183.067913672712
183.57778997475495
184.87137918382555
187.88752078794664
194.28345131151175
206.50098399452563
227.3723847345968
259.1650786279134

