# vtk DataFile Version 2.0
Unstructured Grid Example
ASCII
DATASET UNSTRUCTURED_GRID

POINTS 961 float
0.100000001 0.00499999989 0
0.0966666639 0.00499999989 0
0.0933333337 0.00499999989 0
0.0900000036 0.00499999989 0
0.086666666 0.00499999989 0
0.0833333358 0.00499999989 0
0.0799999982 0.00499999989 0
0.0766666681 0.00499999989 0
0.0733333305 0.00499999989 0
0.0700000003 0.00499999989 0
0.0666666701 0.00499999989 0
0.0633333325 0.00499999989 0
0.0599999987 0.00499999989 0
0.0566666685 0.00499999989 0
0.0533333346 0.00499999989 0
0.0500000007 0.00499999989 0
0.0466666669 0.00499999989 0
0.043333333 0.00499999989 0
0.0399999991 0.00499999989 0
0.0366666652 0.00499999989 0
0.0333333351 0.00499999989 0
0.0299999993 0.00499999989 0
0.0266666673 0.00499999989 0
0.0233333334 0.00499999989 0
0.0199999996 0.00499999989 0
0.0166666675 0.00499999989 0
0.0133333337 0.00499999989 0
0.00999999978 0.00499999989 0
0.00666666683 0.00499999989 0
0.00333333341 0.00499999989 0
0 0.00499999989 0
0.100000001 0.00166666671 0
0.0966666639 0.00166666671 0
0.0933333337 0.00166666671 0
0.0900000036 0.00166666671 0
0.086666666 0.00166666671 0
0.0833333358 0.00166666671 0
0.0799999982 0.00166666671 0
0.0766666681 0.00166666671 0
0.0733333305 0.00166666671 0
0.0700000003 0.00166666671 0
0.0666666701 0.00166666671 0
0.0633333325 0.00166666671 0
0.0599999987 0.00166666671 0
0.0566666685 0.00166666671 0
0.0533333346 0.00166666671 0
0.0500000007 0.00166666671 0
0.0466666669 0.00166666671 0
0.043333333 0.00166666671 0
0.0399999991 0.00166666671 0
0.0366666652 0.00166666671 0
0.0333333351 0.00166666671 0
0.0299999993 0.00166666671 0
0.0266666673 0.00166666671 0
0.0233333334 0.00166666671 0
0.0199999996 0.00166666671 0
0.0166666675 0.00166666671 0
0.0133333337 0.00166666671 0
0.00999999978 0.00166666671 0
0.00666666683 0.00166666671 0
0.00333333341 0.00166666671 0
0 0.00166666671 0
0.100000001 -0.00166666671 0
0.0966666639 -0.00166666671 0
0.0933333337 -0.00166666671 0
0.0900000036 -0.00166666671 0
0.086666666 -0.00166666671 0
0.0833333358 -0.00166666671 0
0.0799999982 -0.00166666671 0
0.0766666681 -0.00166666671 0
0.0733333305 -0.00166666671 0
0.0700000003 -0.00166666671 0
0.0666666701 -0.00166666671 0
0.0633333325 -0.00166666671 0
0.0599999987 -0.00166666671 0
0.0566666685 -0.00166666671 0
0.0533333346 -0.00166666671 0
0.0500000007 -0.00166666671 0
0.0466666669 -0.00166666671 0
0.043333333 -0.00166666671 0
0.0399999991 -0.00166666671 0
0.0366666652 -0.00166666671 0
0.0333333351 -0.00166666671 0
0.0299999993 -0.00166666671 0
0.0266666673 -0.00166666671 0
0.0233333334 -0.00166666671 0
0.0199999996 -0.00166666671 0
0.0166666675 -0.00166666671 0
0.0133333337 -0.00166666671 0
0.00999999978 -0.00166666671 0
0.00666666683 -0.00166666671 0
0.00333333341 -0.00166666671 0
0 -0.00166666671 0
0.100000001 -0.00499999989 0
0.0966666639 -0.00499999989 0
0.0933333337 -0.00499999989 0
0.0900000036 -0.00499999989 0
0.086666666 -0.00499999989 0
0.0833333358 -0.00499999989 0
0.0799999982 -0.00499999989 0
0.0766666681 -0.00499999989 0
0.0733333305 -0.00499999989 0
0.0700000003 -0.00499999989 0
0.0666666701 -0.00499999989 0
0.0633333325 -0.00499999989 0
0.0599999987 -0.00499999989 0
0.0566666685 -0.00499999989 0
0.0533333346 -0.00499999989 0
0.0500000007 -0.00499999989 0
0.0466666669 -0.00499999989 0
0.043333333 -0.00499999989 0
0.0399999991 -0.00499999989 0
0.0366666652 -0.00499999989 0
0.0333333351 -0.00499999989 0
0.0299999993 -0.00499999989 0
0.0266666673 -0.00499999989 0
0.0233333334 -0.00499999989 0
0.0199999996 -0.00499999989 0
0.0166666675 -0.00499999989 0
0.0133333337 -0.00499999989 0
0.00999999978 -0.00499999989 0
0.00666666683 -0.00499999989 0
0.00333333341 -0.00499999989 0
0 -0.00499999989 0
0.100000001 -0.00833333377 0
0.0966666639 -0.00833333377 0
0.0933333337 -0.00833333377 0
0.0900000036 -0.00833333377 0
0.086666666 -0.00833333377 0
0.0833333358 -0.00833333377 0
0.0799999982 -0.00833333377 0
0.0766666681 -0.00833333377 0
0.0733333305 -0.00833333377 0
0.0700000003 -0.00833333377 0
0.0666666701 -0.00833333377 0
0.0633333325 -0.00833333377 0
0.0599999987 -0.00833333377 0
0.0566666685 -0.00833333377 0
0.0533333346 -0.00833333377 0
0.0500000007 -0.00833333377 0
0.0466666669 -0.00833333377 0
0.043333333 -0.00833333377 0
0.0399999991 -0.00833333377 0
0.0366666652 -0.00833333377 0
0.0333333351 -0.00833333377 0
0.0299999993 -0.00833333377 0
0.0266666673 -0.00833333377 0
0.0233333334 -0.00833333377 0
0.0199999996 -0.00833333377 0
0.0166666675 -0.00833333377 0
0.0133333337 -0.00833333377 0
0.00999999978 -0.00833333377 0
0.00666666683 -0.00833333377 0
0.00333333341 -0.00833333377 0
0 -0.00833333377 0
0.100000001 -0.0116666667 0
0.0966666639 -0.0116666667 0
0.0933333337 -0.0116666667 0
0.0900000036 -0.0116666667 0
0.086666666 -0.0116666667 0
0.0833333358 -0.0116666667 0
0.0799999982 -0.0116666667 0
0.0766666681 -0.0116666667 0
0.0733333305 -0.0116666667 0
0.0700000003 -0.0116666667 0
0.0666666701 -0.0116666667 0
0.0633333325 -0.0116666667 0
0.0599999987 -0.0116666667 0
0.0566666685 -0.0116666667 0
0.0533333346 -0.0116666667 0
0.0500000007 -0.0116666667 0
0.0466666669 -0.0116666667 0
0.043333333 -0.0116666667 0
0.0399999991 -0.0116666667 0
0.0366666652 -0.0116666667 0
0.0333333351 -0.0116666667 0
0.0299999993 -0.0116666667 0
0.0266666673 -0.0116666667 0
0.0233333334 -0.0116666667 0
0.0199999996 -0.0116666667 0
0.0166666675 -0.0116666667 0
0.0133333337 -0.0116666667 0
0.00999999978 -0.0116666667 0
0.00666666683 -0.0116666667 0
0.00333333341 -0.0116666667 0
0 -0.0116666667 0
0.100000001 -0.0149999997 0
0.0966666639 -0.0149999997 0
0.0933333337 -0.0149999997 0
0.0900000036 -0.0149999997 0
0.086666666 -0.0149999997 0
0.0833333358 -0.0149999997 0
0.0799999982 -0.0149999997 0
0.0766666681 -0.0149999997 0
0.0733333305 -0.0149999997 0
0.0700000003 -0.0149999997 0
0.0666666701 -0.0149999997 0
0.0633333325 -0.0149999997 0
0.0599999987 -0.0149999997 0
0.0566666685 -0.0149999997 0
0.0533333346 -0.0149999997 0
0.0500000007 -0.0149999997 0
0.0466666669 -0.0149999997 0
0.043333333 -0.0149999997 0
0.0399999991 -0.0149999997 0
0.0366666652 -0.0149999997 0
0.0333333351 -0.0149999997 0
0.0299999993 -0.0149999997 0
0.0266666673 -0.0149999997 0
0.0233333334 -0.0149999997 0
0.0199999996 -0.0149999997 0
0.0166666675 -0.0149999997 0
0.0133333337 -0.0149999997 0
0.00999999978 -0.0149999997 0
0.00666666683 -0.0149999997 0
0.00333333341 -0.0149999997 0
0 -0.0149999997 0
0.100000001 -0.0183333326 0
0.0966666639 -0.0183333326 0
0.0933333337 -0.0183333326 0
0.0900000036 -0.0183333326 0
0.086666666 -0.0183333326 0
0.0833333358 -0.0183333326 0
0.0799999982 -0.0183333326 0
0.0766666681 -0.0183333326 0
0.0733333305 -0.0183333326 0
0.0700000003 -0.0183333326 0
0.0666666701 -0.0183333326 0
0.0633333325 -0.0183333326 0
0.0599999987 -0.0183333326 0
0.0566666685 -0.0183333326 0
0.0533333346 -0.0183333326 0
0.0500000007 -0.0183333326 0
0.0466666669 -0.0183333326 0
0.043333333 -0.0183333326 0
0.0399999991 -0.0183333326 0
0.0366666652 -0.0183333326 0
0.0333333351 -0.0183333326 0
0.0299999993 -0.0183333326 0
0.0266666673 -0.0183333326 0
0.0233333334 -0.0183333326 0
0.0199999996 -0.0183333326 0
0.0166666675 -0.0183333326 0
0.0133333337 -0.0183333326 0
0.00999999978 -0.0183333326 0
0.00666666683 -0.0183333326 0
0.00333333341 -0.0183333326 0
0 -0.0183333326 0
0.100000001 -0.0216666665 0
0.0966666639 -0.0216666665 0
0.0933333337 -0.0216666665 0
0.0900000036 -0.0216666665 0
0.086666666 -0.0216666665 0
0.0833333358 -0.0216666665 0
0.0799999982 -0.0216666665 0
0.0766666681 -0.0216666665 0
0.0733333305 -0.0216666665 0
0.0700000003 -0.0216666665 0
0.0666666701 -0.0216666665 0
0.0633333325 -0.0216666665 0
0.0599999987 -0.0216666665 0
0.0566666685 -0.0216666665 0
0.0533333346 -0.0216666665 0
0.0500000007 -0.0216666665 0
0.0466666669 -0.0216666665 0
0.043333333 -0.0216666665 0
0.0399999991 -0.0216666665 0
0.0366666652 -0.0216666665 0
0.0333333351 -0.0216666665 0
0.0299999993 -0.0216666665 0
0.0266666673 -0.0216666665 0
0.0233333334 -0.0216666665 0
0.0199999996 -0.0216666665 0
0.0166666675 -0.0216666665 0
0.0133333337 -0.0216666665 0
0.00999999978 -0.0216666665 0
0.00666666683 -0.0216666665 0
0.00333333341 -0.0216666665 0
0 -0.0216666665 0
0.100000001 -0.0250000004 0
0.0966666639 -0.0250000004 0
0.0933333337 -0.0250000004 0
0.0900000036 -0.0250000004 0
0.086666666 -0.0250000004 0
0.0833333358 -0.0250000004 0
0.0799999982 -0.0250000004 0
0.0766666681 -0.0250000004 0
0.0733333305 -0.0250000004 0
0.0700000003 -0.0250000004 0
0.0666666701 -0.0250000004 0
0.0633333325 -0.0250000004 0
0.0599999987 -0.0250000004 0
0.0566666685 -0.0250000004 0
0.0533333346 -0.0250000004 0
0.0500000007 -0.0250000004 0
0.0466666669 -0.0250000004 0
0.043333333 -0.0250000004 0
0.0399999991 -0.0250000004 0
0.0366666652 -0.0250000004 0
0.0333333351 -0.0250000004 0
0.0299999993 -0.0250000004 0
0.0266666673 -0.0250000004 0
0.0233333334 -0.0250000004 0
0.0199999996 -0.0250000004 0
0.0166666675 -0.0250000004 0
0.0133333337 -0.0250000004 0
0.00999999978 -0.0250000004 0
0.00666666683 -0.0250000004 0
0.00333333341 -0.0250000004 0
0 -0.0250000004 0
0.100000001 -0.0283333343 0
0.0966666639 -0.0283333343 0
0.0933333337 -0.0283333343 0
0.0900000036 -0.0283333343 0
0.086666666 -0.0283333343 0
0.0833333358 -0.0283333343 0
0.0799999982 -0.0283333343 0
0.0766666681 -0.0283333343 0
0.0733333305 -0.0283333343 0
0.0700000003 -0.0283333343 0
0.0666666701 -0.0283333343 0
0.0633333325 -0.0283333343 0
0.0599999987 -0.0283333343 0
0.0566666685 -0.0283333343 0
0.0533333346 -0.0283333343 0
0.0500000007 -0.0283333343 0
0.0466666669 -0.0283333343 0
0.043333333 -0.0283333343 0
0.0399999991 -0.0283333343 0
0.0366666652 -0.0283333343 0
0.0333333351 -0.0283333343 0
0.0299999993 -0.0283333343 0
0.0266666673 -0.0283333343 0
0.0233333334 -0.0283333343 0
0.0199999996 -0.0283333343 0
0.0166666675 -0.0283333343 0
0.0133333337 -0.0283333343 0
0.00999999978 -0.0283333343 0
0.00666666683 -0.0283333343 0
0.00333333341 -0.0283333343 0
0 -0.0283333343 0
0.100000001 -0.0316666663 0
[...]
POINT_DATA 961
SCALARS Temp float 1
LOOKUP_TABLE default
335.77218904797917
304.5400094896848
279.8962801688876
261.35988161218637
248.08912832726682
239.0535597919441
233.20401481051024
229.60205631030001
227.4907503837274
226.31137586989203
225.68267070201202
225.36237666271975
225.20635852164872
225.13408457259376
225.1035453017882
225.09523510750972
225.10354529937086
225.13408456609054
225.20635862589765
225.3623768918945
225.68267014855599
226.31137623375258
227.49075191855852
229.60205593976224
233.2040192630046
239.0535548281111
248.08913263723556
261.3598703875938
279.89628317587346
304.5400402593242
335.7721888812817
304.54004236042596
272.1789704870408
246.64408193120437
227.43697161492545
213.68567703980932
204.3226354811628
198.2608721852773
194.52808888530313
192.34000507617924
191.11768622257893
190.46605662715828
190.13406712317385
189.97234379957345
189.89742325741418
189.86576429114663
189.8571491749418
189.8657642886404
189.89742325067257
189.97234390763683
190.1340673607217
190.46605605350592
191.11768659969772
192.3400066668562
194.52808850128903
198.26087679938772
204.32263033731945
213.6856815059063
227.43695998403044
246.64408504696107
272.17900236910845
304.54004218772843
279.896284845925
246.644051779683
220.40483732310838
200.66680425796017
186.53438696462126
176.91102822267354
170.6801252445573
166.84277023434592
164.5931220434859
163.33625249085304
162.66611422740743
162.32464781298995
162.158284581458
162.0812039313541
162.04862823265518
162.03976297873126
162.0486282300763
162.08120392441748
162.15828469262843
162.32464805733215
162.66611363741686
163.33625287865735
164.59312367900807
166.84276983952236
170.68012998764553
176.91102293551427
186.53439155467177
200.6667923051213
220.40484052489953
246.64408454043635
279.896284668543
261.3598705844407
227.43692448334568
200.66678743384918
180.52772273526963
166.10669427021273
156.2856141728827
149.92580210022376
146.00844470229612
143.71150232243193
142.42797416614553
141.74348946318707
141.39464261575287
141.2246486880072
141.14586994153356
141.11257067423284
141.10350749141713
141.1125706715965
141.14586993444303
141.22464880161363
141.39464286539635
141.74348886049955
142.42797456221336
143.71150399246997
146.00844429916506
149.92580694177983
156.28560877664913
166.1066989542552
180.5277105389314
200.6667907005606
227.4369579059391
261.3598704035847
248.08913296976598
213.68564563890578
186.53438675548338
166.10671147068498
151.47732588855936
141.51297458435144
135.05935723956813
131.0835091521324
128.75181290910248
127.44858851317787
126.75344407090024
126.39908138919819
126.22635805343577
126.14629545759973
126.1124464156809
126.10323237927231
126.11244641300061
126.14629545039251
126.22635816887795
126.39908164281259
126.75344345874848
127.44858891536813
128.75181460456383
131.08350874289377
135.0593621529295
141.51296910888394
151.47733064057002
166.1066990988229
186.53439006885796
213.68567953614232
248.08913278646682
239.05355701376664
204.32259604484793
176.91102006067217
156.28562342618946
141.5129663507884
131.44966530241373
124.93093638780663
120.914262652674
118.5581619178264
117.24101758219001
116.53828883592189
116.17997448333487
116.00528205748546
115.92428696554659
115.89003625341648
115.88071159869396
115.890036250704
115.9242869582539
116.00528217425583
116.17997473980202
116.53828821701084
117.24101798872182
118.55816363119037
120.9142622391441
124.93094135113444
131.4496597720623
141.51297114962793
156.2856109338491
176.9110234059679
204.3226302659099
239.05355682883962
233.2040194763359
198.26084023871715
170.6801249798616
149.92581952474603
135.0593571863956
124.93094470470818
118.36912470197402
114.325259851228
111.95279219405577
110.62624339477107
109.91835092027662
109.55732461590895
109.38126994666352
109.29962469751173
109.26509203221113
109.25568940246978
109.26509202947581
109.29962469015928
109.38127006435599
109.55732487434008
109.91835029674321
110.6262438042473
111.95279391946474
114.3252594348186
118.3691296984649
124.93093913812035
135.0593620159649
149.92580695368596
170.68012834593478
198.2608746699086
233.2040192903817
229.60205688643907
194.5280525621301
166.84276559317686
146.0084577280881
131.08350456553399
120.91426642379624
114.32525524026607
110.26411029546249
107.88116082427435
106.54853935517596
105.83728360748947
105.474475105008
105.29751710251746
105.2154369293047
105.18071421395261
105.17125877786904
105.18071421120182
105.21543692191197
105.29751722082378
105.47447536473427
105.83728298093062
106.54853976656155
107.88116255742517
110.2641098772078
114.32526025775043
120.91426083440301
131.0835094143122
146.00844510805555
166.8427689721209
194.52808712304815
229.60205669987045
227.49075253468598
192.33997030376682
164.59311906883966
143.71151709063184
128.751810050319
118.55816745530561
111.95278934100074
107.88116260186182
105.49180132873866
104.1554315715991
103.44208012727482
103.07815017790399
102.90061808138653
102.81825882495043
102.78341313596093
102.77392335460907
102.7834131332002
102.8182588175317
102.90061820008458
103.0781504384486
103.44207949882059
104.15543198416881
105.49180306664407
107.88116218247774
111.95279437116578
118.55816185222493
128.75181491054178
143.7115044415732
164.59312245537765
192.34000494093857
227.4907523477688
226.31137616657256
191.11764948283027
163.3362475337079
142.4279869329348
127.44858359917268
117.24102105425571
110.62623844971786
106.54853903812757
104.15542946830591
102.8168472242395
102.10224609641074
101.73764031288131
101.55975851000234
101.4772274711244
101.44230540400798
101.43279417242223
101.4423054012411
101.47722746368969
101.5597586289401
101.73764057392121
102.10224546681964
102.81684763751184
104.15543120900263
106.54853861808303
110.6262434871964
117.24101544333452
127.4485884659003
142.42797426746958
163.33625092451766
191.11768416272548
226.3113759794677
225.68267045659573
190.46601930116057
162.66610868887258
141.74350164844913
126.7534385536328
116.53829170435655
109.91834536046956
105.83728267644094
103.4420774064959
102.10224547971396
101.38693084438029
101.02193484367221
100.84384881024289
100.76121633205638
100.72624872959516
100.71672463448508
100.72624872682451
100.7612163246121
100.84384892932137
101.02193510499932
101.38693021413606
102.10224589338533
103.44207914876039
105.83728225602702
109.91835040197964
116.53828608914436
126.75344342389181
141.74348897412932
162.66611208197625
190.4660540039026
225.68267026939478
225.36237701141593
190.13403040051924
162.3246429060038
141.3946554525477
126.39907652720116
116.17997801757441
109.55731972342046
105.4744748465019
103.07814813083664
101.73764037214877
101.02193552069568
100.65672360195404
100.47852320841037
100.3958332676401
100.36083961230399
100.35130811237691
100.36083960953123
100.39583326019032
100.47852332756801
100.65672386344089
101.02193489009187
101.73764078603709
103.07814987394401
105.4744744258904
109.55732476705653
116.17997240011626
126.3990813992932
141.39464277365926
162.32464630028502
190.1340651149381
225.36237682416802
225.20635878437025
189.97230698172086
162.1582795819371
141.22466143341268
126.22635309539001
116.00528549624401
109.38126495622707
105.29751674657767
102.90061593613443
101.55975847143226
100.84384938951064
100.47852311039175
100.30026140641496
100.21754029363497
100.1825323614603
100.17299677862816
100.1825323586863
100.21754028618216
100.30026152561524
100.47852337196363
100.84384875871734
101.55975888543335
102.90061767967536
105.29751632586492
109.38127000093542
116.0052798776615
126.22635796839191
141.22464875227013
162.15828297679613
189.97234170184652
225.20635859710018
225.1340847413547
189.8973863393343
162.08119883121765
141.1458825855833
126.14629039503906
115.9242902993523
109.29961960044949
105.21543646665175
102.81825657240394
101.47722732529625
100.76121680402849
100.39583306214915
100.21754018613777
100.13480304257558
100.09978769623285
100.09024998050005
100.09978769345817
100.13480303512111
100.21754030535978
100.39583332376377
100.76121617314043
101.47722773935314
102.81825831615667
105.21543604588983
109.29962464567164
115.92428468023488
126.14629526847021
141.14586990338321
162.08120222634628
189.8974210621118
225.13408455407506
225.10354548457258
189.8657273864056
162.04862314730022
141.1125833340176
126.11244136846422
115.89003960307825
109.265086950769
105.18071376721001
102.78341089928026
101.4423052741925
100.72624921764101
100.36083942285124
100.18253227001412
100.09978771229625
100.06476890835148
100.05523019294723
100.06476890557653
100.09978770484106
100.18253238924596
100.36083968448527
100.72624858671016
101.44230568827426
102.78341264312661
105.18071334642634
109.26509199621475
115.89003398372968
126.1124462420796
141.11257065136584
162.0486265425435
189.8657621103069
225.10354529728897
225.0952353019101
189.85711228191653
162.0397579057202
141.1035201639928
126.10322734488149
115.88071496142692
109.25568433410722
105.17125834433654
102.77392113115853
101.43279405589834
100.71672513585207
100.35130793624218
100.1729967005076
100.09025000989477
100.05523020627946
100.04569120097813
100.05523020350445
100.09025000243926
100.17299681974228
100.35130819788178
100.71672450490908
101.43279446998709
102.77392287503112
105.1712579235467
109.255689379615
115.8807093420145
126.10323221854753
141.10350748121732
162.03976130099483
189.85714700612425
225.09523511462547
225.1035454902947
189.86572739233753
162.04862315340384
141.11258334025683
126.11244137480648
115.89003960949576
109.26508695723942
105.18071377371601
102.78341090580935
101.44230528073588
100.7262492241929
100.36083942940799
100.18253227657347
100.09978771885707
100.06476891491296
100.05523019950893
100.06476891213796
100.0997877114018
100.18253239580537
100.36083969104203
100.72624859326208
101.44230569481752
102.78341264965559
105.18071335293223
109.26509200268517
115.8900339901472
126.11244624842192
141.11257065760512
162.0486265486472
189.8657621162389
225.10354530301115
225.1340847553904
189.8973863538842
162.08119884618748
141.14588260088374
126.14629041058984
115.92429031508533
109.29961961630973
105.21543648259743
102.81825658840452
101.47722734133076
100.76121682008295
100.39583307821496
100.21754020220983
100.13480305865082
100.09978771230956
100.09024999657721
100.09978770953484
100.13480305119631
100.21754032143178
100.39583333982968
100.76121618919484
101.47722775538742
102.81825833215703
105.21543606183529
109.29962466153181
115.92428469596793
126.14629528402097
141.14586991868364
162.08120224131608
189.89742107666163
225.1340845681107
225.2063588151259
189.97230701360195
162.15827961473428
141.22466146692773
126.22635312944563
116.0052855306904
109.38126499094467
105.29751678147564
102.9006159711474
101.55975850651542
100.84384942463494
100.47852314553927
100.30026144157482
100.21754032880118
100.1825323966294
100.172996813798
100.18253239385534
100.21754032134828
100.3002615607751
100.478523407111
100.84384879384162
101.5597589205164
102.90061771468808
105.29751636076269
109.38127003565295
116.00527991210795
126.22635800244748
141.22464878578495
162.15828300959296
189.97234173372738
225.20635862785596
225.3623770821449
190.13403047383198
162.32464298141284
141.39465552959177
126.39907660546956
116.17997809672205
109.55731980317316
105.47447492665353
103.07814821124009
101.73764045270457
101.02193560133964
100.65672368264708
100.47852328912944
100.39583334837221
100.36083969304208
100.3513081931167
100.36083969026919
100.39583334092245
100.4785234082869
100.65672394413376
101.02193497073567
101.73764086659261
103.07814995434727
105.47447450604176
109.55732484680911
116.17997247926384
126.39908147756151
141.3946428507031
162.32464637569376
190.1340651882507
225.3623768948967
225.68267085442454
190.46601971350412
162.66610911295288
141.74350208164518
126.75343899361873
116.53829214918777
109.918345808611
105.83728312674675
103.44207785815605
102.10224593218544
101.38693129731709
101.02193529686485
100.8438492635701
100.76121678545071
100.72624918301972
100.71672508791816
100.72624918024906
100.76121677800626
100.8438493826485
101.02193555819188
101.38693066707276
102.10224634585651
103.44207960042034
105.83728270633273
109.91835085012104
116.53828653397555
126.75344386387773
141.74348940732517
162.66611250605638
190.46605441624573
225.6826706672233
226.3113759490648
191.1176492573941
163.3362473018761
142.427986696151
127.44858335871456
117.2410208111878
110.62623820487633
106.54853879213353
104.1554292215953
102.8168469771027
102.10224584903128
101.73764006536942
101.55975826242133
101.47722722350913
101.44230515637744
101.43279392478728
101.44230515361046
101.4772272160744
101.55975838135905
101.73764032640929
102.10224521944014
102.81684739037497
104.155430962292
106.54853837208893
110.62624324235493
117.24101520026657
127.44858822544235
142.4279740306858
163.33625069268578
191.11768393728917
226.3113757619598
227.4907538720395
192.33997168978274
164.5931204939353
143.711518545809
128.75181152765626
118.55816894824984
111.95279084444726
107.88116411205978
105.49180284308393
104.1554330883794
103.44208164542304
103.0781516967878
102.90061960064881
102.81826034439739
102.78341465548979
102.77392487416091
102.78341465272916
102.8182603369788
102.9006197193469
103.07815195733254
103.44208101696891
104.15543350094921
105.49180458098922
107.88116369267576
111.95279587461222
118.5581633451692
128.75181638787907
143.71150589675045
164.5931238804733
192.34000632695452
227.49075368512257
229.6020561678799
194.52805181744955
166.84276482756923
146.00845694642285
131.08350377208586
120.91426562208808
114.32525443302924
110.26410948469292
107.88116001134917
106.54853854099383
105.83728279260656
105.47447428975121
105.2975162870698
105.2154361137646
105.1807133983719
105.17125796227711
105.18071339562135
105.21543610637218
105.29751640537637
105.47447454947778
105.83728216604798
106.54853895237957
107.88116174449996
110.26410906643824
114.3252594505136
120.91426003269477
131.083508620864
146.0084443263903
166.84276820651348
194.52808637836762
229.6020559813115
233.2040247311311
198.26084568425506
170.68013057763173
149.92582523874788
135.0593629851662
124.93095056247289
118.36913059889952
114.32526577294772
111.95279813075452
110.62624934011049
109.91835687037995
109.55733056852497
109.38127590054698
109.29963065200276
109.26509798696655
109.25569535729853
109.2650979842314
109.29963064465053
109.38127601823967
109.5573308269563
109.91835624684673
110.62624974958672
111.95279985616345
114.32526535653828
118.36913559539019
124.93094499588506
135.05936781473537
149.9258126676879
170.68013394370476
198.26088011544635
233.20402454517662
239.05355901917275
204.32259812295598
176.9110221966154
156.28562560610354
141.51296856260288
131.44966753629228
124.93093863622828
120.91426491023158
118.5581641808566
117.24101984834888
116.53829110378962
116.17997675209526
116.0052843266915
115.92428923496435
115.8900385229258
115.88071386822855
115.89003852021344
115.92428922767199
116.0052844434622
116.17997700856243
116.53829048487859
117.24102025488082
118.5581658942205
120.91426449670156
124.93094359955575
131.44966200594072
141.51297336144245
156.28561311376322
176.91102554191113
204.32263234401776
239.05355883424554
248.0891269678136
213.68563941950933
186.53438036340535
166.10670494761786
151.47731927072746
141.51296790119486
135.0593505135193
131.08350239925474
128.75180614022935
127.4485817352066
126.75343728798671
126.39907460371724
126.22635126667942
126.14628867024126
126.11243962806373
126.10322559158399
126.11243962538357
126.14628866303418
126.22635138212169
126.3990748573318
126.75343667583496
127.44858213739695
128.7518078356906
131.08350199001583
135.05935542688047
141.512962425727
151.477324022738
166.10669257575563
186.53438367677978
213.68567331674586
248.08912678451415
261.35987948691917
227.4369337080627
200.66679691388018
180.52773240838653
166.10670408249734
156.28562408067813
149.9258120704161
146.00845471129992
143.71151235443554
142.42798421114713
141.74349951520261
141.3946526713868
141.22465874542598
141.1458799997894
141.11258073284623
141.10351755012843
141.11258073020994
141.14587999269907
141.22465885903253
141.3946529210302
141.74349891251512
142.4279846072149
143.7115140244732
146.00845430816844
149.92581691197165
156.2856186844439
166.10670876653953
180.5277202120481
200.66680018059128
227.4369671306554
261.35987930606285
279.89627711973185
246.64404377401428
220.404829096387
200.66679586444062
186.53437845121627
176.91101962726296
170.68011659577456
166.84276155250413
164.59311334214226
163.3362437785412
162.66610550920726
162.32463909176772
162.15827585875275
162.08119520795702
162.04861950896378
162.03975425495943
162.048619506385
162.08119520102036
162.15827596992327
162.3246393361099
162.66610491921656
163.3362441663454
164.5931149776641
166.84276115768014
170.6801213388623
176.911014340103
186.53438304126635
200.66678391160139
220.40483229817772
246.64407653476752
279.8962769423495
304.5400680910037
272.17899714786216
246.64410932679306
227.43699956394025
213.68570538570725
204.32266409782477
198.26090097763085
194.52811778611746
192.34003404074457
191.1177152228606
190.46608564653863
190.13409615231504
189.97237283348466
189.8974522935421
189.8657933282134
189.85717821226484
189.86579332570767
189.89745228680056
189.97237294154814
190.13409638986292
190.4660850728863
191.11771559997922
192.34003563142116
194.52811740210313
198.26090559174074
204.32265895398103
213.68570985180358
227.436987933045
246.64411244254902
272.1790290299286
304.5400679183058
335.7721889579914
304.5400093964593
279.8962800731377
261.35988151456735
248.0891282283363
239.05355969214173
233.20401471015938
229.60205620962216
227.49075028286467
226.31137576893028
225.68267060099973
225.3623765616829
225.20635842060057
225.1340844715404
225.1035452007328
225.09523500645403
225.10354519831571
225.13408446503732
225.20635852484963
225.36237679085772
225.6826700475436
226.3113761327908
227.49075181769578
229.60205583908413
233.20401916265325
239.0535547283083
248.0891325383045
261.3598702899743
279.89628308012306
304.54004016609844
335.7721887912934

