# vtk DataFile Version 2.0
Unstructured Grid Example
ASCII
DATASET UNSTRUCTURED_GRID

POINTS 961 float
0.100000001 0.00499999989 0
0.0966666639 0.00499999989 0
0.0933333337 0.00499999989 0
0.0900000036 0.00499999989 0
0.086666666 0.00499999989 0
0.0833333358 0.00499999989 0
0.0799999982 0.00499999989 0
0.0766666681 0.00499999989 0
0.0733333305 0.00499999989 0
0.0700000003 0.00499999989 0
0.0666666701 0.00499999989 0
0.0633333325 0.00499999989 0
0.0599999987 0.00499999989 0
0.0566666685 0.00499999989 0
0.0533333346 0.00499999989 0
0.0500000007 0.00499999989 0
0.0466666669 0.00499999989 0
0.043333333 0.00499999989 0
0.0399999991 0.00499999989 0
0.0366666652 0.00499999989 0
0.0333333351 0.00499999989 0
0.0299999993 0.00499999989 0
0.0266666673 0.00499999989 0
0.0233333334 0.00499999989 0
0.0199999996 0.00499999989 0
0.0166666675 0.00499999989 0
0.0133333337 0.00499999989 0
0.00999999978 0.00499999989 0
0.00666666683 0.00499999989 0
0.00333333341 0.00499999989 0
0 0.00499999989 0
0.100000001 0.00166666671 0
0.0966666639 0.00166666671 0
0.0933333337 0.00166666671 0
0.0900000036 0.00166666671 0
0.086666666 0.00166666671 0
0.0833333358 0.00166666671 0
0.0799999982 0.00166666671 0
0.0766666681 0.00166666671 0
0.0733333305 0.00166666671 0
0.0700000003 0.00166666671 0
0.0666666701 0.00166666671 0
0.0633333325 0.00166666671 0
0.0599999987 0.00166666671 0
0.0566666685 0.00166666671 0
0.0533333346 0.00166666671 0
0.0500000007 0.00166666671 0
0.0466666669 0.00166666671 0
0.043333333 0.00166666671 0
0.0399999991 0.00166666671 0
0.0366666652 0.00166666671 0
0.0333333351 0.00166666671 0
0.0299999993 0.00166666671 0
0.0266666673 0.00166666671 0
0.0233333334 0.00166666671 0
0.0199999996 0.00166666671 0
0.0166666675 0.00166666671 0
0.0133333337 0.00166666671 0
0.00999999978 0.00166666671 0
0.00666666683 0.00166666671 0
0.00333333341 0.00166666671 0
0 0.00166666671 0
0.100000001 -0.00166666671 0
0.0966666639 -0.00166666671 0
0.0933333337 -0.00166666671 0
0.0900000036 -0.00166666671 0
0.086666666 -0.00166666671 0
0.0833333358 -0.00166666671 0
0.0799999982 -0.00166666671 0
0.0766666681 -0.00166666671 0
0.0733333305 -0.00166666671 0
0.0700000003 -0.00166666671 0
0.0666666701 -0.00166666671 0
0.0633333325 -0.00166666671 0
0.0599999987 -0.00166666671 0
0.0566666685 -0.00166666671 0
0.0533333346 -0.00166666671 0
0.0500000007 -0.00166666671 0
0.0466666669 -0.00166666671 0
0.043333333 -0.00166666671 0
0.0399999991 -0.00166666671 0
0.0366666652 -0.00166666671 0
0.0333333351 -0.00166666671 0
0.0299999993 -0.00166666671 0
0.0266666673 -0.00166666671 0
0.0233333334 -0.00166666671 0
0.0199999996 -0.00166666671 0
0.0166666675 -0.00166666671 0
0.0133333337 -0.00166666671 0
0.00999999978 -0.00166666671 0
0.00666666683 -0.00166666671 0
0.00333333341 -0.00166666671 0
0 -0.00166666671 0
0.100000001 -0.00499999989 0
0.0966666639 -0.00499999989 0
0.0933333337 -0.00499999989 0
0.0900000036 -0.00499999989 0
0.086666666 -0.00499999989 0
0.0833333358 -0.00499999989 0
0.0799999982 -0.00499999989 0
0.0766666681 -0.00499999989 0
0.0733333305 -0.00499999989 0
0.0700000003 -0.00499999989 0
0.0666666701 -0.00499999989 0
0.0633333325 -0.00499999989 0
0.0599999987 -0.00499999989 0
0.0566666685 -0.00499999989 0
0.0533333346 -0.00499999989 0
0.0500000007 -0.00499999989 0
0.0466666669 -0.00499999989 0
0.043333333 -0.00499999989 0
0.0399999991 -0.00499999989 0
0.0366666652 -0.00499999989 0
0.0333333351 -0.00499999989 0
0.0299999993 -0.00499999989 0
0.0266666673 -0.00499999989 0
0.0233333334 -0.00499999989 0
0.0199999996 -0.00499999989 0
0.0166666675 -0.00499999989 0
0.0133333337 -0.00499999989 0
0.00999999978 -0.00499999989 0
0.00666666683 -0.00499999989 0
0.00333333341 -0.00499999989 0
0 -0.00499999989 0
0.100000001 -0.00833333377 0
0.0966666639 -0.00833333377 0
0.0933333337 -0.00833333377 0
0.0900000036 -0.00833333377 0
0.086666666 -0.00833333377 0
0.0833333358 -0.00833333377 0
0.0799999982 -0.00833333377 0
0.0766666681 -0.00833333377 0
0.0733333305 -0.00833333377 0
0.0700000003 -0.00833333377 0
0.0666666701 -0.00833333377 0
0.0633333325 -0.00833333377 0
0.0599999987 -0.00833333377 0
0.0566666685 -0.00833333377 0
0.0533333346 -0.00833333377 0
0.0500000007 -0.00833333377 0
0.0466666669 -0.00833333377 0
0.043333333 -0.00833333377 0
0.0399999991 -0.00833333377 0
0.0366666652 -0.00833333377 0
0.0333333351 -0.00833333377 0
0.0299999993 -0.00833333377 0
0.0266666673 -0.00833333377 0
0.0233333334 -0.00833333377 0
0.0199999996 -0.00833333377 0
0.0166666675 -0.00833333377 0
0.0133333337 -0.00833333377 0
0.00999999978 -0.00833333377 0
0.00666666683 -0.00833333377 0
0.00333333341 -0.00833333377 0
0 -0.00833333377 0
0.100000001 -0.0116666667 0
0.0966666639 -0.0116666667 0
0.0933333337 -0.0116666667 0
0.0900000036 -0.0116666667 0
0.086666666 -0.0116666667 0
0.0833333358 -0.0116666667 0
0.0799999982 -0.0116666667 0
0.0766666681 -0.0116666667 0
0.0733333305 -0.0116666667 0
0.0700000003 -0.0116666667 0
0.0666666701 -0.0116666667 0
0.0633333325 -0.0116666667 0
0.0599999987 -0.0116666667 0
0.0566666685 -0.0116666667 0
0.0533333346 -0.0116666667 0
0.0500000007 -0.0116666667 0
0.0466666669 -0.0116666667 0
0.043333333 -0.0116666667 0
0.0399999991 -0.0116666667 0
0.0366666652 -0.0116666667 0
0.0333333351 -0.0116666667 0
0.0299999993 -0.0116666667 0
0.0266666673 -0.0116666667 0
0.0233333334 -0.0116666667 0
0.0199999996 -0.0116666667 0
0.0166666675 -0.0116666667 0
0.0133333337 -0.0116666667 0
0.00999999978 -0.0116666667 0
0.00666666683 -0.0116666667 0
0.00333333341 -0.0116666667 0
0 -0.0116666667 0
0.100000001 -0.0149999997 0
0.0966666639 -0.0149999997 0
0.0933333337 -0.0149999997 0
0.0900000036 -0.0149999997 0
0.086666666 -0.0149999997 0
0.0833333358 -0.0149999997 0
0.0799999982 -0.0149999997 0
0.0766666681 -0.0149999997 0
0.0733333305 -0.0149999997 0
0.0700000003 -0.0149999997 0
0.0666666701 -0.0149999997 0
0.0633333325 -0.0149999997 0
0.0599999987 -0.0149999997 0
0.0566666685 -0.0149999997 0
0.0533333346 -0.0149999997 0
0.0500000007 -0.0149999997 0
0.0466666669 -0.0149999997 0
0.043333333 -0.0149999997 0
0.0399999991 -0.0149999997 0
0.0366666652 -0.0149999997 0
0.0333333351 -0.0149999997 0
0.0299999993 -0.0149999997 0
0.0266666673 -0.0149999997 0
0.0233333334 -0.0149999997 0
0.0199999996 -0.0149999997 0
0.0166666675 -0.0149999997 0
0.0133333337 -0.0149999997 0
0.00999999978 -0.0149999997 0
0.00666666683 -0.0149999997 0
0.00333333341 -0.0149999997 0
0 -0.0149999997 0
0.100000001 -0.0183333326 0
0.0966666639 -0.0183333326 0
0.0933333337 -0.0183333326 0
0.0900000036 -0.0183333326 0
0.086666666 -0.0183333326 0
0.0833333358 -0.0183333326 0
0.0799999982 -0.0183333326 0
0.0766666681 -0.0183333326 0
0.0733333305 -0.0183333326 0
0.0700000003 -0.0183333326 0
0.0666666701 -0.0183333326 0
0.0633333325 -0.0183333326 0
0.0599999987 -0.0183333326 0
0.0566666685 -0.0183333326 0
0.0533333346 -0.0183333326 0
0.0500000007 -0.0183333326 0
0.0466666669 -0.0183333326 0
0.043333333 -0.0183333326 0
0.0399999991 -0.0183333326 0
0.0366666652 -0.0183333326 0
0.0333333351 -0.0183333326 0
0.0299999993 -0.0183333326 0
0.0266666673 -0.0183333326 0
0.0233333334 -0.0183333326 0
0.0199999996 -0.0183333326 0
0.0166666675 -0.0183333326 0
0.0133333337 -0.0183333326 0
0.00999999978 -0.0183333326 0
0.00666666683 -0.0183333326 0
0.00333333341 -0.0183333326 0
0 -0.0183333326 0
0.100000001 -0.0216666665 0
0.0966666639 -0.0216666665 0
0.0933333337 -0.0216666665 0
0.0900000036 -0.0216666665 0
0.086666666 -0.0216666665 0
0.0833333358 -0.0216666665 0
0.0799999982 -0.0216666665 0
0.0766666681 -0.0216666665 0
0.0733333305 -0.0216666665 0
0.0700000003 -0.0216666665 0
0.0666666701 -0.0216666665 0
0.0633333325 -0.0216666665 0
0.0599999987 -0.0216666665 0
0.0566666685 -0.0216666665 0
0.0533333346 -0.0216666665 0
0.0500000007 -0.0216666665 0
0.0466666669 -0.0216666665 0
0.043333333 -0.0216666665 0
0.0399999991 -0.0216666665 0
0.0366666652 -0.0216666665 0
0.0333333351 -0.0216666665 0
0.0299999993 -0.0216666665 0
0.0266666673 -0.0216666665 0
0.0233333334 -0.0216666665 0
0.0199999996 -0.0216666665 0
0.0166666675 -0.0216666665 0
0.0133333337 -0.0216666665 0
0.00999999978 -0.0216666665 0
0.00666666683 -0.0216666665 0
0.00333333341 -0.0216666665 0
0 -0.0216666665 0
0.100000001 -0.0250000004 0
0.0966666639 -0.0250000004 0
0.0933333337 -0.0250000004 0
0.0900000036 -0.0250000004 0
0.086666666 -0.0250000004 0
0.0833333358 -0.0250000004 0
0.0799999982 -0.0250000004 0
0.0766666681 -0.0250000004 0
0.0733333305 -0.0250000004 0
0.0700000003 -0.0250000004 0
0.0666666701 -0.0250000004 0
0.0633333325 -0.0250000004 0
0.0599999987 -0.0250000004 0
0.0566666685 -0.0250000004 0
0.0533333346 -0.0250000004 0
0.0500000007 -0.0250000004 0
0.0466666669 -0.0250000004 0
0.043333333 -0.0250000004 0
0.0399999991 -0.0250000004 0
0.0366666652 -0.0250000004 0
0.0333333351 -0.0250000004 0
0.0299999993 -0.0250000004 0
0.0266666673 -0.0250000004 0
0.0233333334 -0.0250000004 0
0.0199999996 -0.0250000004 0
0.0166666675 -0.0250000004 0
0.0133333337 -0.0250000004 0
0.00999999978 -0.0250000004 0
0.00666666683 -0.0250000004 0
0.00333333341 -0.0250000004 0
0 -0.0250000004 0
0.100000001 -0.0283333343 0
0.0966666639 -0.0283333343 0
0.0933333337 -0.0283333343 0
0.0900000036 -0.0283333343 0
0.086666666 -0.0283333343 0
0.0833333358 -0.0283333343 0
0.0799999982 -0.0283333343 0
0.0766666681 -0.0283333343 0
0.0733333305 -0.0283333343 0
0.0700000003 -0.0283333343 0
0.0666666701 -0.0283333343 0
0.0633333325 -0.0283333343 0
0.0599999987 -0.0283333343 0
0.0566666685 -0.0283333343 0
0.0533333346 -0.0283333343 0
0.0500000007 -0.0283333343 0
0.0466666669 -0.0283333343 0
0.043333333 -0.0283333343 0
0.0399999991 -0.0283333343 0
0.0366666652 -0.0283333343 0
0.0333333351 -0.0283333343 0
0.0299999993 -0.0283333343 0
0.0266666673 -0.0283333343 0
0.0233333334 -0.0283333343 0
0.0199999996 -0.0283333343 0
0.0166666675 -0.0283333343 0
0.0133333337 -0.0283333343 0
0.00999999978 -0.0283333343 0
0.00666666683 -0.0283333343 0
0.00333333341 -0.0283333343 0
0 -0.0283333343 0
0.100000001 -0.0316666663 0
[...]
POINT_DATA 961
SCALARS Temp float 1
LOOKUP_TABLE default
268.24068900501413
236.39057279618103
214.78630502374565
201.55530097142747
194.23169372618463
190.55104405341177
188.85995009319979
188.14394605962292
187.8622648638135
187.75847566973079
187.722392972951
187.710478775168
187.70672093913296
187.70558438658247
187.7052587541853
187.7051905400342
187.70525875416462
187.7055843865044
187.70672094125015
187.71047878242456
187.72239294739583
187.75847569588655
187.86226503714911
188.1439460137304
188.85995118773607
190.5510424097814
194.23169581043425
201.55529402106583
214.78630744826276
236.3906019689729
268.2406886900127
236.3906041305229
203.45074938004805
181.10536837013493
167.4188799817897
159.8420755272774
156.033569580939
154.2834372025922
153.54231022221367
153.25069658054454
153.14323026818548
153.10586346142816
153.09352347292906
153.08963081039252
153.08845333110028
153.08811593479498
153.08804525079944
153.08811593477338
153.0884533310195
153.08963081258582
153.09352348044527
153.10586343496175
153.1432302952698
153.2506967600032
153.54231017470204
154.2834383354213
156.03356788004328
159.8420776837337
167.41887279156467
181.10537087792292
203.4507795521703
236.39060380473347
214.7863089730856
181.10533931496568
158.252248961124
144.25063834942293
136.49657607354249
132.59737792608937
130.80478874192892
130.045344261482
129.74639095174052
129.6361724259385
129.5978328704158
129.58516669627056
129.58116966781705
129.57996020361122
129.57961353551215
129.579540893555
129.57961353549007
129.5799602035282
129.58116967006947
129.58516670398657
129.59783284325565
129.63617245372154
129.74639113574594
130.04534421277177
130.80478990245638
132.59737618423938
136.49657828083787
144.250630992105
158.25225152614968
181.1053701690016
214.78630863994974
201.55529438280357
167.41883957338737
144.25062713844747
130.0508130528765
122.18346110373363
118.22525801497804
116.40452542676111
115.63270886835154
115.32870679879413
115.21656188068377
115.17753025253846
115.16462846330994
115.1605549843628
115.15932178780454
115.1589681620306
115.15889403942055
115.15896816200818
115.15932178771985
115.16055498665868
115.16462847117089
115.17753022488135
115.21656190895935
115.32870698594817
115.63270881881455
116.40452660579535
118.22525624618221
122.18346334377378
130.0508055894797
144.25062973916144
167.41887084843734
201.55529404516452
194.23169624277205
159.84204428589493
136.49657446913855
122.18347094147452
114.25009426790267
110.25674523068814
108.41885772825077
107.63932133082662
107.33209595510725
107.21869389450224
107.17920121043834
107.1661394117548
107.16201308500428
107.16076321444399
107.16040463013539
107.1603294420328
107.1604046301126
107.16076321435814
107.1620130873304
107.16613941971481
107.17920118244729
107.21869392310226
107.33209614428822
107.63932128075987
108.41885891867835
110.25674344561624
114.25009652720807
122.18346341675904
136.49657709003947
159.84207579627645
194.23169590265613
190.55104344559277
156.0335349783536
132.59737299527785
118.22526452432092
110.25674182971568
106.2442147081095
104.39671413720384
103.61273219281863
103.30359978113904
103.18943426775557
103.1496545715202
103.13649083224166
103.13233010639887
103.13106916694167
103.13070723365374
103.1306313174612
103.13070723363067
103.13106916685491
103.13233010874472
103.1364908402653
103.14965454331904
103.18943429655488
103.30359997153151
103.61273214243687
104.396715334091
106.24421291401121
110.25674409938733
118.22525696726505
132.59737562657273
156.03356660830715
190.55104310425273
188.85995154268034
154.28340466952153
130.8047859840857
116.40453416632369
108.4188565575632
104.39671638729327
102.54425568198349
101.75790965449698
101.44773184737015
101.33313520891487
101.29318875802716
101.27996418018144
101.27578240465927
101.27451453404345
101.27415046084886
101.27407407303407
101.27415046082554
101.27451453395615
101.2757824070174
101.27996418824337
101.29318872970217
101.33313523782813
101.44773203843435
101.75790960394153
102.54425688224697
104.39671458858945
108.41885883235338
116.40452659363801
130.8047886202797
154.28343635505001
188.85995120079383
188.1439464838945
153.54227660254338
130.04534041323336
115.63271651033742
107.6393190425589
103.61273332300136
101.7579085285289
100.9703991141234
100.65968975008319
100.54486665370969
100.5048298037244
100.49157123749187
100.4873773647784
100.4861054051022
100.48574004002816
100.48566336304084
100.4857400400048
100.48610540501457
100.4873773671437
100.49157124557532
100.5048297753314
100.5448666826836
100.65968994149335
100.9703990634789
101.75790973042382
103.61273152212777
107.63932131967977
115.63270893068928
130.0453430515558
153.54230831187814
188.14394614178553
187.86226542622282
153.25066309375703
129.74638724883278
115.32871459286169
107.33209381672114
103.30360106381671
101.44773087318633
100.65968990285471
100.34872925836133
100.23379536414343
100.19371276025619
100.18043641870764
100.17623601931398
100.17496178845845
100.17459568719734
100.17451884256245
100.17459568717399
100.17496178837074
100.17623602168317
100.18043642680263
100.19371273182828
100.23379539314756
100.3487294499373
100.65968985216772
101.44773207581302
103.30359926199468
107.33209609482664
115.32870701033572
129.74638988801436
153.25069481256492
187.8622650840306
187.75847602018706
153.1431965581777
129.63616849751676
115.21656944698452
107.21869152436146
103.18943531783067
101.33313400077212
100.5448665723838
100.23379512977492
100.1188106238992
100.07870636687677
100.0654213159957
100.06121761006736
100.05994219177956
100.05957569472444
100.05949875825796
100.0595756947011
100.05994219169179
100.06121761243855
100.06542132409645
100.07870633843201
100.11881065291742
100.23379532142498
100.54486652167783
101.33313520370476
103.18943351562196
107.21869380285524
115.21656186334717
129.63617113702287
153.1432282805148
187.75847567796595
187.722393295451
153.10582972114125
129.5978289121038
115.17753778898607
107.17919880953217
103.14965559084166
101.29318751879084
100.50482969134431
100.19371249476758
100.07870633577684
100.03859247488131
100.02530341991387
100.02109813959056
100.01982213671276
100.0194554389178
100.01937845494173
100.01945543889443
100.01982213662501
100.02109814196278
100.02530342801722
100.03859244642896
100.07870636480123
100.19371268644862
100.50482964063059
101.2931887218435
103.14965378848505
107.17920108817
115.17753020494492
129.59783155172542
153.10586144471804
187.72239295322044
187.71047912271936
153.09348975814515
129.58516276452434
115.16463602701027
107.16613703824073
103.1364918792481
101.27996296867725
100.49157115295317
100.1804361810839
100.06542131279282
100.02530344782191
100.012012661714
100.0078066757822
100.006530401662
100.00616360778767
100.00608660059716
100.00616360776431
100.00653040157417
100.00780667815488
100.01201266981847
100.02530341936634
100.06542134181967
100.1804363727773
100.49157110223645
101.27996417177438
103.13649007683807
107.1661393169291
115.16462844283028
129.585165404185
153.09352148213515
187.71047878048606
187.70672128305898
153.089597091713
129.5811657321972
115.16056254418194
107.16201070749776
103.13233114941022
101.27578118911516
100.48737727620403
100.17623577764473
100.06121760282193
100.02109816345623
100.00780667173792
100.00360038762342
100.00232399477164
100.00195715748548
100.0018801395829
100.00195715746217
100.00232399468382
100.00360038999624
100.00780667984294
100.02109813499925
100.06121763184964
100.17623596934263
100.48737722548618
101.27578239222784
103.13232934698192
107.16201298620291
115.16055495995653
129.58116837187032
153.08962881583463
187.70672094082465
187.7055847287285
153.0884196105341
129.5799562660917
115.15932934570746
107.16076083497589
103.13107020798368
101.27451331651073
100.48610531453778
100.17496154479431
100.0599421825394
100.0198221585835
100.00653039562185
100.0023239927757
100.00104755098135
100.00068069523215
100.00060367267871
100.0006806952088
100.00104755089346
100.00232399514846
100.00653040372691
100.01982213012596
100.05994221156752
100.17496173649384
100.48610526381957
101.27451451962853
103.13106840554926
107.16076311368634
115.15932176146768
129.57995890576865
153.0884513346958
187.70558438649397
187.70525909652494
153.08808221441674
129.5796095981967
115.15897572014764
107.16040225087845
103.13070827491164
101.2741492435305
100.4857399496804
100.17459544374968
100.05957568570156
100.019455461006
100.00616360196499
100.00195715570707
100.00068069544967
100.00031383253662
100.00023680814506
100.00031383251327
100.0006806953618
100.0019571580798
100.00616361007003
100.01945543254833
100.05957571472985
100.17459563544963
100.48573989896195
101.27415044664991
103.13070647247548
107.16040452959048
115.15896813590365
129.57961223787476
153.08811393858997
187.70525875429036
187.70519088247235
153.0880115305208
129.57953695634413
115.15890159764547
107.16032706288416
103.13063235882908
101.27407285582575
100.48566327280385
100.17451859922569
100.05949874934632
100.01937847714119
100.00608659488569
100.00188013791582
100.00060367300755
100.00023680825637
100.00015978338756
100.00023680823308
100.0006036729196
100.00188014028849
100.00608660299072
100.0193784486835
100.05949877837456
100.17451879092577
100.48566322208532
101.27407405894559
103.13063055639249
107.16032934159651
115.15889401340057
129.57953959602247
153.08804325469657
187.70519054023788
187.7052590965834
153.08808221447737
129.579609598259
115.1589757202112
107.1604022509429
103.13070827497673
101.27414924359603
100.48573994974616
100.17459544381556
100.05957568576753
100.01945546107198
100.00616360203095
100.00195715577303
100.00068069551568
100.00031383260269
100.00023680821117
100.00031383257927
100.00068069542776
100.0019571581458
100.00616361013606
100.01945543261436
100.05957571479568
100.17459563551546
100.48573989902764
101.27415044671545
103.1307064725406
107.16040452965494
115.15896813596724
129.57961223793706
153.08811393865074
187.70525875434896
187.70558472892338
153.08841961073594
129.579956266299
115.15932934591879
107.16076083519015
103.13107020819994
101.27451331672819
100.48610531475605
100.17496154501295
100.05994218275823
100.01982215880233
100.00653039584078
100.00232399299462
100.00104755120033
100.00068069545114
100.0006036728977
100.00068069542773
100.00104755111239
100.00232399536745
100.00653040394592
100.01982213034485
100.05994221178621
100.17496173671226
100.48610526403763
101.27451451984592
103.13106840576553
107.1607631139006
115.15932176167904
129.5799589059759
153.0884513348976
187.70558438668874
187.70672128370705
153.0895970923844
129.58116573288675
115.16056254488471
107.16201070820976
103.13233115012822
101.2757811898369
100.48737727692793
100.17623577836991
100.06121760354762
100.02109816418219
100.00780667246408
100.00360038834965
100.00232399549786
100.00195715821162
100.00188014030904
100.00195715818826
100.0023239954099
100.00360039072237
100.00780668056898
100.02109813572524
100.06121763257528
100.17623597006757
100.48737722620997
101.27578239294947
103.13232934769988
107.16201298691486
115.16055496065918
129.5811683725597
153.0896288165059
187.70672094147267
187.71047912500742
153.09348976051504
129.58516276695715
115.16463602948869
107.16613704075034
103.13649188177774
101.27996297121896
100.49157115550169
100.18043618363606
100.06542131534665
100.0253034503766
100.01201266426908
100.00780667833743
100.00653040421716
100.00616361034281
100.00608660315231
100.00616361031942
100.00653040412939
100.0078066807099
100.01201267237344
100.02530342192091
100.0654213443734
100.18043637532922
100.49157110478473
101.27996417431595
103.13649007936763
107.16613931943859
115.16462844530857
129.58516540661765
153.09352148450498
187.71047878277383
187.7223933146614
153.10582974103633
129.5978289325198
115.17753780977472
107.17919883057098
103.14965561203753
101.29318754007896
100.50482971268312
100.19371251613232
100.07870635715412
100.0385924962641
100.02530344129907
100.02109816097672
100.01982215809916
100.01945546030427
100.01937847632819
100.01945546028091
100.01982215801125
100.02109816334881
100.02530344940229
100.0385924678117
100.0787063861783
100.19371270781325
100.50482966196931
101.29318874313168
103.14965380968091
107.17920110920873
115.17753022573348
129.59783157214127
153.1058614646129
187.72239297243067
187.75847600609202
153.14319654358192
129.63616848254318
115.21656943174374
107.21869150894409
103.18943530230425
101.33313398518283
100.54486655676094
100.23379511413522
100.11881060825156
100.0787063512257
100.06542130034323
100.0612175944142
100.05994217612611
100.05957567907099
100.05949874260443
100.0595756790476
100.05994217603838
100.06121759678538
100.06542130844387
100.07870632278089
100.11881063726972
100.23379530578521
100.544866506055
101.33313518811559
103.18943350009549
107.21869378743787
115.21656184810642
129.63617112204926
153.1432282659188
187.75847566387085
187.86226557521184
153.25066324800983
129.74638740699592
115.32871475373409
107.33209397933909
103.30360122747882
101.44773103742803
100.65969006739518
100.34872942304534
100.23379552889159
100.19371292503129
100.1804365834933
100.17623618410354
100.17496195324935
100.17459585198874
100.17451900735402
100.17459585196542
100.17496195316171
100.17623618647283
100.18043659158833
100.1937128966034
100.23379555789573
100.34872961462122
100.65969001670821
101.44773224005466
103.3035994256568
107.33209625744458
115.32870717120815
129.74639004617757
153.25069496681772
187.86226523301963
188.14394637730848
153.54227649220485
130.0453403001329
115.63271639534763
107.63931892637055
103.61273320610924
101.75790841125402
100.9703989966556
100.65968963252497
100.54486653611193
100.50482968611036
100.4915711198715
100.4873772471557
100.48610528747872
100.4857399224045
100.48566324541709
100.48573992238127
100.48610528739133
100.48737724952117
100.49157112795515
100.50482965771748
100.54486656508594
100.65968982393511
100.97039894601109
101.75790961314895
103.6127314052356
107.63932120349139
115.63270881569946
130.04534293845552
153.54230820153956
188.1439460351996
188.85995282494807
154.28340599665287
130.80478734367466
116.4045355476053
108.41885795220485
104.39671778951237
102.54425708816558
101.75791106259518
101.44773325632829
101.33313661823291
101.29319016748633
101.27996558969282
101.27578381418886
101.27451594357916
101.27415187038646
101.27407548257216
101.27415187036335
101.27451594349205
101.27578381654718
101.27996559775491
101.2931901391615
101.33313664714618
101.4477334473925
101.75791101203964
102.54425828842889
104.3967159908085
108.41886022699494
116.40452797491969
130.80478997986853
154.28343768218133
188.8599524830613
190.55104420626205
156.03353576547104
132.59737380120364
118.22526534252549
110.25674265526476
106.24421553768542
104.39671496880868
103.6127330253669
103.30360061409417
103.18943510087452
103.14965540470106
103.13649166544467
103.13233093960913
103.13107000015441
103.13070806686731
103.13063215067494
103.13070806684436
103.13107000006782
103.1323309419552
103.13649167346827
103.14965537649992
103.18943512967384
103.30360080448656
103.61273297498494
104.3967161656956
106.244213743587
110.2567449249363
118.2252577854696
132.59737643249852
156.03356739542457
190.55104386492192
194.23169346393786
159.84204141072686
136.4965715260189
122.18346795447695
114.25009125500767
110.25674220380702
108.41885469443595
107.63931829384147
107.33209291677706
107.21869085563942
107.17919817137732
107.16613637262391
107.16201004585
107.16076017528235
107.1604015909715
107.16032640286848
107.16040159094874
107.16076017519659
107.16201004817626
107.166136380584
107.17919814338629
107.21869088423941
107.33209310595788
107.63931824377438
108.41885588486338
110.25674041873488
114.25009351431278
122.18346042976133
136.49657414691976
159.84207292110844
194.2316931238219
201.5553000052004
167.41884538972494
144.25063308970766
130.05081908964118
122.18346718982212
118.22526412702322
116.4045315513237
115.63271499847863
115.32871293121707
115.21656801399183
115.1775363861677
115.16463459704946
115.1605611181384
115.15932792159141
115.15897429582091
115.1589001732114
115.15897429579836
115.15932792150682
115.16056112043431
115.16463460491039
115.17753635851055
115.21656804226731
115.3287131183707
115.63271494894124
116.40453273035746
118.22526235822684
122.18346942986186
130.05081162624418
144.25063569042135
167.41887666477464
201.55529966756137
214.78630293307586
181.10533306728834
158.2522425702834
144.25063186897538
136.49656954218744
132.59737136840587
130.80478217178378
130.0453376859028
129.7463843739618
129.63616584732716
129.59782629150772
129.5851601172622
129.5811630887763
129.57995362456057
129.57960695645835
129.5795343145006
129.57960695643635
129.57995362447744
129.58116309102877
129.58516012497805
129.59782626434756
129.63616587511007
129.746384557967
130.04533763719218
130.80478333231088
132.59736962655538
136.49657174948246
144.25062451165712
158.25224513530867
181.10536392132423
214.78630259993975
236.3906285553971
203.4507746416232
181.1053942026695
167.4189061668457
159.84210190938148
156.03359606315954
154.2834637313415
153.54233677089175
153.25072313715174
153.14325682774603
153.1058900220259
153.0935500338726
153.08965737144607
153.0884798921875
153.0881424958915
153.08807181189812
153.08814249587013
153.08847989210662
153.08965737363948
153.09355004138888
153.10588999555947
153.14325685483013
153.25072331661008
153.54233672337983
154.28346486417036
156.03359436226356
159.84210406583733
167.41889897662048
181.10539671045692
203.45080481374427
236.39062822960747
268.2406887954608
236.3905725794981
214.7863048022956
201.55530074712385
194.2316935003528
190.55104382684448
188.8599498663119
188.14394583260733
187.86226463675058
187.75847544265173
187.7223927458667
187.71047854808202
187.70672071204638
187.70558415949571
187.70525852709855
187.7051903129475
187.70525852707786
187.70558415941784
187.70672071416385
187.71047855533848
187.72239272031135
187.7584754688072
187.86226481008617
188.1439457867145
188.859950960848
190.55104218321392
194.23169558460222
201.55529379676204
214.78630722681254
236.39060175228974
268.240688480459

