# vtk DataFile Version 2.0
Unstructured Grid Example
ASCII
DATASET UNSTRUCTURED_GRID

POINTS 961 float
0.100000001 0.00499999989 0
0.0966666639 0.00499999989 0
0.0933333337 0.00499999989 0
0.0900000036 0.00499999989 0
0.086666666 0.00499999989 0
0.0833333358 0.00499999989 0
0.0799999982 0.00499999989 0
0.0766666681 0.00499999989 0
0.0733333305 0.00499999989 0
0.0700000003 0.00499999989 0
0.0666666701 0.00499999989 0
0.0633333325 0.00499999989 0
0.0599999987 0.00499999989 0
0.0566666685 0.00499999989 0
0.0533333346 0.00499999989 0
0.0500000007 0.00499999989 0
0.0466666669 0.00499999989 0
0.043333333 0.00499999989 0
0.0399999991 0.00499999989 0
0.0366666652 0.00499999989 0
0.0333333351 0.00499999989 0
0.0299999993 0.00499999989 0
0.0266666673 0.00499999989 0
0.0233333334 0.00499999989 0
0.0199999996 0.00499999989 0
0.0166666675 0.00499999989 0
0.0133333337 0.00499999989 0
0.00999999978 0.00499999989 0
0.00666666683 0.00499999989 0
0.00333333341 0.00499999989 0
0 0.00499999989 0
0.100000001 0.00166666671 0
0.0966666639 0.00166666671 0
0.0933333337 0.00166666671 0
0.0900000036 0.00166666671 0
0.086666666 0.00166666671 0
0.0833333358 0.00166666671 0
0.0799999982 0.00166666671 0
0.0766666681 0.00166666671 0
0.0733333305 0.00166666671 0
0.0700000003 0.00166666671 0
0.0666666701 0.00166666671 0
0.0633333325 0.00166666671 0
0.0599999987 0.00166666671 0
0.0566666685 0.00166666671 0
0.0533333346 0.00166666671 0
0.0500000007 0.00166666671 0
0.0466666669 0.00166666671 0
0.043333333 0.00166666671 0
0.0399999991 0.00166666671 0
0.0366666652 0.00166666671 0
0.0333333351 0.00166666671 0
0.0299999993 0.00166666671 0
0.0266666673 0.00166666671 0
0.0233333334 0.00166666671 0
0.0199999996 0.00166666671 0
0.0166666675 0.00166666671 0
0.0133333337 0.00166666671 0
0.00999999978 0.00166666671 0
0.00666666683 0.00166666671 0
0.00333333341 0.00166666671 0
0 0.00166666671 0
0.100000001 -0.00166666671 0
0.0966666639 -0.00166666671 0
0.0933333337 -0.00166666671 0
0.0900000036 -0.00166666671 0
0.086666666 -0.00166666671 0
0.0833333358 -0.00166666671 0
0.0799999982 -0.00166666671 0
0.0766666681 -0.00166666671 0
0.0733333305 -0.00166666671 0
0.0700000003 -0.00166666671 0
0.0666666701 -0.00166666671 0
0.0633333325 -0.00166666671 0
0.0599999987 -0.00166666671 0
0.0566666685 -0.00166666671 0
0.0533333346 -0.00166666671 0
0.0500000007 -0.00166666671 0
0.0466666669 -0.00166666671 0
0.043333333 -0.00166666671 0
0.0399999991 -0.00166666671 0
0.0366666652 -0.00166666671 0
0.0333333351 -0.00166666671 0
0.0299999993 -0.00166666671 0
0.0266666673 -0.00166666671 0
0.0233333334 -0.00166666671 0
0.0199999996 -0.00166666671 0
0.0166666675 -0.00166666671 0
0.0133333337 -0.00166666671 0
0.00999999978 -0.00166666671 0
0.00666666683 -0.00166666671 0
0.00333333341 -0.00166666671 0
0 -0.00166666671 0
0.100000001 -0.00499999989 0
0.0966666639 -0.00499999989 0
0.0933333337 -0.00499999989 0
0.0900000036 -0.00499999989 0
0.086666666 -0.00499999989 0
0.0833333358 -0.00499999989 0
0.0799999982 -0.00499999989 0
0.0766666681 -0.00499999989 0
0.0733333305 -0.00499999989 0
0.0700000003 -0.00499999989 0
0.0666666701 -0.00499999989 0
0.0633333325 -0.00499999989 0
0.0599999987 -0.00499999989 0
0.0566666685 -0.00499999989 0
0.0533333346 -0.00499999989 0
0.0500000007 -0.00499999989 0
0.0466666669 -0.00499999989 0
0.043333333 -0.00499999989 0
0.0399999991 -0.00499999989 0
0.0366666652 -0.00499999989 0
0.0333333351 -0.00499999989 0
0.0299999993 -0.00499999989 0
0.0266666673 -0.00499999989 0
0.0233333334 -0.00499999989 0
0.0199999996 -0.00499999989 0
0.0166666675 -0.00499999989 0
0.0133333337 -0.00499999989 0
0.00999999978 -0.00499999989 0
0.00666666683 -0.00499999989 0
0.00333333341 -0.00499999989 0
0 -0.00499999989 0
0.100000001 -0.00833333377 0
0.0966666639 -0.00833333377 0
0.0933333337 -0.00833333377 0
0.0900000036 -0.00833333377 0
0.086666666 -0.00833333377 0
0.0833333358 -0.00833333377 0
0.0799999982 -0.00833333377 0
0.0766666681 -0.00833333377 0
0.0733333305 -0.00833333377 0
0.0700000003 -0.00833333377 0
0.0666666701 -0.00833333377 0
0.0633333325 -0.00833333377 0
0.0599999987 -0.00833333377 0
0.0566666685 -0.00833333377 0
0.0533333346 -0.00833333377 0
0.0500000007 -0.00833333377 0
0.0466666669 -0.00833333377 0
0.043333333 -0.00833333377 0
0.0399999991 -0.00833333377 0
0.0366666652 -0.00833333377 0
0.0333333351 -0.00833333377 0
0.0299999993 -0.00833333377 0
0.0266666673 -0.00833333377 0
0.0233333334 -0.00833333377 0
0.0199999996 -0.00833333377 0
0.0166666675 -0.00833333377 0
0.0133333337 -0.00833333377 0
0.00999999978 -0.00833333377 0
0.00666666683 -0.00833333377 0
0.00333333341 -0.00833333377 0
0 -0.00833333377 0
0.100000001 -0.0116666667 0
0.0966666639 -0.0116666667 0
0.0933333337 -0.0116666667 0
0.0900000036 -0.0116666667 0
0.086666666 -0.0116666667 0
0.0833333358 -0.0116666667 0
0.0799999982 -0.0116666667 0
0.0766666681 -0.0116666667 0
0.0733333305 -0.0116666667 0
0.0700000003 -0.0116666667 0
0.0666666701 -0.0116666667 0
0.0633333325 -0.0116666667 0
0.0599999987 -0.0116666667 0
0.0566666685 -0.0116666667 0
0.0533333346 -0.0116666667 0
0.0500000007 -0.0116666667 0
0.0466666669 -0.0116666667 0
0.043333333 -0.0116666667 0
0.0399999991 -0.0116666667 0
0.0366666652 -0.0116666667 0
0.0333333351 -0.0116666667 0
0.0299999993 -0.0116666667 0
0.0266666673 -0.0116666667 0
0.0233333334 -0.0116666667 0
0.0199999996 -0.0116666667 0
0.0166666675 -0.0116666667 0
0.0133333337 -0.0116666667 0
0.00999999978 -0.0116666667 0
0.00666666683 -0.0116666667 0
0.00333333341 -0.0116666667 0
0 -0.0116666667 0
0.100000001 -0.0149999997 0
0.0966666639 -0.0149999997 0
0.0933333337 -0.0149999997 0
0.0900000036 -0.0149999997 0
0.086666666 -0.0149999997 0
0.0833333358 -0.0149999997 0
0.0799999982 -0.0149999997 0
0.0766666681 -0.0149999997 0
0.0733333305 -0.0149999997 0
0.0700000003 -0.0149999997 0
0.0666666701 -0.0149999997 0
0.0633333325 -0.0149999997 0
0.0599999987 -0.0149999997 0
0.0566666685 -0.0149999997 0
0.0533333346 -0.0149999997 0
0.0500000007 -0.0149999997 0
0.0466666669 -0.0149999997 0
0.043333333 -0.0149999997 0
0.0399999991 -0.0149999997 0
0.0366666652 -0.0149999997 0
0.0333333351 -0.0149999997 0
0.0299999993 -0.0149999997 0
0.0266666673 -0.0149999997 0
0.0233333334 -0.0149999997 0
0.0199999996 -0.0149999997 0
0.0166666675 -0.0149999997 0
0.0133333337 -0.0149999997 0
0.00999999978 -0.0149999997 0
0.00666666683 -0.0149999997 0
0.00333333341 -0.0149999997 0
0 -0.0149999997 0
0.100000001 -0.0183333326 0
0.0966666639 -0.0183333326 0
0.0933333337 -0.0183333326 0
0.0900000036 -0.0183333326 0
0.086666666 -0.0183333326 0
0.0833333358 -0.0183333326 0
0.0799999982 -0.0183333326 0
0.0766666681 -0.0183333326 0
0.0733333305 -0.0183333326 0
0.0700000003 -0.0183333326 0
0.0666666701 -0.0183333326 0
0.0633333325 -0.0183333326 0
0.0599999987 -0.0183333326 0
0.0566666685 -0.0183333326 0
0.0533333346 -0.0183333326 0
0.0500000007 -0.0183333326 0
0.0466666669 -0.0183333326 0
0.043333333 -0.0183333326 0
0.0399999991 -0.0183333326 0
0.0366666652 -0.0183333326 0
0.0333333351 -0.0183333326 0
0.0299999993 -0.0183333326 0
0.0266666673 -0.0183333326 0
0.0233333334 -0.0183333326 0
0.0199999996 -0.0183333326 0
0.0166666675 -0.0183333326 0
0.0133333337 -0.0183333326 0
0.00999999978 -0.0183333326 0
0.00666666683 -0.0183333326 0
0.00333333341 -0.0183333326 0
0 -0.0183333326 0
0.100000001 -0.0216666665 0
0.0966666639 -0.0216666665 0
0.0933333337 -0.0216666665 0
0.0900000036 -0.0216666665 0
0.086666666 -0.0216666665 0
0.0833333358 -0.0216666665 0
0.0799999982 -0.0216666665 0
0.0766666681 -0.0216666665 0
0.0733333305 -0.0216666665 0
0.0700000003 -0.0216666665 0
0.0666666701 -0.0216666665 0
0.0633333325 -0.0216666665 0
0.0599999987 -0.0216666665 0
0.0566666685 -0.0216666665 0
0.0533333346 -0.0216666665 0
0.0500000007 -0.0216666665 0
0.0466666669 -0.0216666665 0
0.043333333 -0.0216666665 0
0.0399999991 -0.0216666665 0
0.0366666652 -0.0216666665 0
0.0333333351 -0.0216666665 0
0.0299999993 -0.0216666665 0
0.0266666673 -0.0216666665 0
0.0233333334 -0.0216666665 0
0.0199999996 -0.0216666665 0
0.0166666675 -0.0216666665 0
0.0133333337 -0.0216666665 0
0.00999999978 -0.0216666665 0
0.00666666683 -0.0216666665 0
0.00333333341 -0.0216666665 0
0 -0.0216666665 0
0.100000001 -0.0250000004 0
0.0966666639 -0.0250000004 0
0.0933333337 -0.0250000004 0
0.0900000036 -0.0250000004 0
0.086666666 -0.0250000004 0
0.0833333358 -0.0250000004 0
0.0799999982 -0.0250000004 0
0.0766666681 -0.0250000004 0
0.0733333305 -0.0250000004 0
0.0700000003 -0.0250000004 0
0.0666666701 -0.0250000004 0
0.0633333325 -0.0250000004 0
0.0599999987 -0.0250000004 0
0.0566666685 -0.0250000004 0
0.0533333346 -0.0250000004 0
0.0500000007 -0.0250000004 0
0.0466666669 -0.0250000004 0
0.043333333 -0.0250000004 0
0.0399999991 -0.0250000004 0
0.0366666652 -0.0250000004 0
0.0333333351 -0.0250000004 0
0.0299999993 -0.0250000004 0
0.0266666673 -0.0250000004 0
0.0233333334 -0.0250000004 0
0.0199999996 -0.0250000004 0
0.0166666675 -0.0250000004 0
0.0133333337 -0.0250000004 0
0.00999999978 -0.0250000004 0
0.00666666683 -0.0250000004 0
0.00333333341 -0.0250000004 0
0 -0.0250000004 0
0.100000001 -0.0283333343 0
0.0966666639 -0.0283333343 0
0.0933333337 -0.0283333343 0
0.0900000036 -0.0283333343 0
0.086666666 -0.0283333343 0
0.0833333358 -0.0283333343 0
0.0799999982 -0.0283333343 0
0.0766666681 -0.0283333343 0
0.0733333305 -0.0283333343 0
0.0700000003 -0.0283333343 0
0.0666666701 -0.0283333343 0
0.0633333325 -0.0283333343 0
0.0599999987 -0.0283333343 0
0.0566666685 -0.0283333343 0
0.0533333346 -0.0283333343 0
0.0500000007 -0.0283333343 0
0.0466666669 -0.0283333343 0
0.043333333 -0.0283333343 0
0.0399999991 -0.0283333343 0
0.0366666652 -0.0283333343 0
0.0333333351 -0.0283333343 0
0.0299999993 -0.0283333343 0
0.0266666673 -0.0283333343 0
0.0233333334 -0.0283333343 0
0.0199999996 -0.0283333343 0
0.0166666675 -0.0283333343 0
0.0133333337 -0.0283333343 0
0.00999999978 -0.0283333343 0
0.00666666683 -0.0283333343 0
0.00333333341 -0.0283333343 0
0 -0.0283333343 0
0.100000001 -0.0316666663 0
[...]
POINT_DATA 961
SCALARS Temp float 1
LOOKUP_TABLE default
312.45123021353004
280.8501245169612
256.8729659940207
239.7566606773671
228.27907839103253
221.0521295991298
216.77635836234788
214.39584201640878
213.14602307121388
212.52565796558738
212.23371177970552
212.10307163370038
212.04734791354534
212.02471826810967
212.01622403175045
212.014083079854
212.0162240311287
212.0247182662564
212.04734794877825
212.10307172254753
212.23371153993213
212.52565814560495
213.14602393570587
214.39584180069886
216.77636147459256
221.05212583683016
228.27908199213186
239.75665066423338
256.8729688474613
280.8501550500487
312.4512299868045
280.85015720205155
248.12356469734053
223.2917775308649
205.56474586086688
193.67709648561404
186.1915479569354
181.76251185411485
179.2965037394547
178.0017090815149
177.35897261001944
177.05647567067209
176.9211040041458
176.86335772248904
176.83990498654427
176.83110121929707
176.8288821560486
176.8311012186524
176.83990498462364
176.86335775900193
176.9211040962134
177.05647542222354
177.35897279653554
178.00170997714312
179.29650351597925
181.76251507801135
186.19154405986808
193.67710021545912
205.56473549020242
223.29178048605974
248.1235963182987
280.85015696728885
256.87297050878357
223.29174747190757
197.809647812999
179.61659904798765
167.4149626694569
159.73059926346411
155.18319072262227
152.65082395782218
151.3209340560898
150.660644756627
150.34982309488302
150.2106971161
150.1513370308666
150.12722401040276
150.11817074858587
150.11588852889273
150.11817074792305
150.1272240084278
150.15133706840325
150.21069721072845
150.34982283956947
150.66064494825588
151.3209349760696
152.65082372828104
155.1831940329421
159.73059526249722
167.41496649805828
179.61658840399784
197.80965084571804
223.29177991978406
256.87297026799524
239.75665093139853
205.56470039890564
179.6165838016708
161.08834191916054
148.6598214283387
140.83101802314775
136.1970869101232
133.61589428054262
132.2600000855023
131.58660993978162
131.26952885294946
131.12755895977415
131.0669674177058
131.0423469833986
131.0331007899152
131.0307695342887
131.03310078923812
131.04234698138177
131.06696745602574
131.1275590563478
131.2695285924538
131.58661013524056
132.26000102357992
133.61589404650093
136.1970902837979
140.83101394641758
148.6598253284699
161.0883310780865
179.6165868900369
205.56473343852022
239.7566506863787
228.27908237456487
193.67706481769454
167.41496195905236
148.6598364249057
136.0768657377329
128.1490751216858
123.45539991131352
120.84021487499162
119.46605824882279
118.78338410219948
118.46182623983154
118.31780350973916
118.25631492147619
118.23132161212487
118.22193254032969
118.21956478862442
118.22193253964215
118.23132161007699
118.25631496036885
118.31780360772177
118.4618259756116
118.78338430038482
119.46605919965795
120.84021463778407
123.45540332889414
128.14907099279546
136.07686968670134
148.65982545002083
167.41496508499
193.67709825530616
228.27908212676695
221.05212762251028
186.1915098465753
159.73059217823305
140.83102664687033
128.14906854940358
120.15733562113546
115.42472358000191
112.78716896501265
111.40086980243072
110.71195632193077
110.38735675522629
110.2419238349109
110.17981229105834
110.15455731718154
110.14506705179325
110.14267329788905
110.14506705109811
110.15455731511173
110.1798123303502
110.24192393386552
110.38735648846122
110.71195652195829
111.40087076178628
112.78716872569622
115.42472702632068
120.15733145836982
128.14907252978074
140.8310155864921
159.73059532802014
186.19154353568112
221.0521273730079
216.7763617517111
181.76247914235208
155.18318932209516
136.19710139995945
123.45539920928901
115.42472953137279
110.66816806171367
108.01670202499417
106.62276238621635
105.92987454605489
105.60331300914235
105.45695891261062
105.39443530457547
105.3690051463846
105.3594464069468
105.35703493769073
105.3594464062464
105.36900514429986
105.39443534413292
105.45695901220309
105.60331274072438
105.92987474726316
106.62276335096061
108.01670178434792
110.66817152579526
115.42472534785371
123.45540320869739
136.19709028816283
155.18319248612246
181.76251298085043
216.7763615012312
214.39584253290076
179.29646796244313
152.65081948907127
133.61590568478314
120.8402110065235
112.78717174185016
108.01669881650867
105.35705370578052
103.958563327044
103.26327595120553
102.93551320244997
102.78858708775725
102.72580397794943
102.70026198759005
102.6906590102361
102.68823600790905
102.69065900953235
102.70026198549579
102.72580401767515
102.78858718774792
102.9355129330123
103.26327615313143
103.95856429501627
105.35705346434041
108.01670229096378
112.78716754632869
120.84021501680635
133.61589454384372
152.6508226611064
179.29650188448045
214.39584228189588
213.14602442876108
178.00167412878142
151.32093047585832
132.26001241792665
119.4660552994535
111.40087351678207
106.62276011093202
103.95856426875194
102.55750635065021
101.86084511617743
101.53238408764375
101.38512027723031
101.3221815869941
101.2965715409484
101.28694128600483
101.2845111122899
101.28694128529911
101.29657153884831
101.32218162682132
101.3851203774576
101.53238381760842
101.86084531851745
102.55750732045512
103.95856402686289
106.62276359111758
111.40086931469943
119.46605931560546
132.26000126139462
151.3209336521431
178.00170809488293
213.1460241774911
212.52565827413343
177.35893654701934
150.660640056747
131.58662114167865
118.78337999584956
110.71195887410039
105.92987109701652
103.26327571800759
101.86084393805127
101.16343604444002
100.83458933332145
100.68713589518923
100.6241083805395
100.59845884956256
100.58881254250376
100.58637811036398
100.58881254179681
100.59845884745911
100.62410842042509
100.68713599555018
100.8345890629531
101.1634362470069
101.86084490884325
103.26327547587789
105.92987458020085
110.71195466862173
118.78338401499926
131.586609977254
150.66064323516494
177.35897053509908
212.52565802273762
212.23371184642784
177.05643934599922
150.34981813594422
131.2695397958823
118.46182186549541
110.38735903936214
105.60330928792706
102.93551269743055
101.53238263658776
100.83458906067351
100.50553973302527
100.35798492993136
100.29490909574594
100.26923771609394
100.25958239232733
100.25714554527599
100.2595823916197
100.26923771398859
100.2949091356635
100.35798503036429
100.50553946248034
100.83458926335867
101.5323836078849
102.93551245517831
105.60331277260116
110.38735483221551
118.46182588609784
131.26952862766842
150.3498213153775
177.0564733444734
212.23371159497574
212.10307195036992
176.92106793347534
150.21069242261103
131.12757017599125
118.31779941017015
110.24192639764532
105.45695547056133
102.78858686362759
101.38511910744462
100.68713590446337
100.35798521212962
100.21037878023583
100.147277883722
100.1215949687199
100.11193480948826
100.10949665452553
100.11193480878029
100.12159496661354
100.14727792365623
100.21037888070562
100.35798494149543
100.68713610720714
101.38512007898794
102.78858662131609
105.45695895593937
110.24192218971955
118.317803431442
131.12755900604768
150.2106956025041
176.92110193662398
212.1030716988938
212.0473481929055
176.8633216110196
150.15133229734204
131.0669785941275
118.25631078047505
110.17981481247435
105.39443182042332
102.72580371184846
101.32218037502535
100.62410834771639
100.29490933586122
100.14727784157873
100.08416455193483
100.05847582870966
100.04881319574952
100.04637436496363
100.04881319504139
100.05847582660283
100.08416459187737
100.14727794206665
100.29490906518399
100.62410855048775
101.32218134668275
102.72580346950951
105.39443530611823
110.17981060420189
118.25631480204078
131.06696742343135
150.1513354774332
176.86335561617204
212.04734794141953
212.0247185164583
176.83986884206365
150.12721924371164
131.0423581263957
118.2313174367549
110.15455980408966
105.36900162726492
102.70026168649606
101.29657029384371
100.59845878161204
100.26923792107229
100.12159489140352
100.05847579353197
100.03278429963873
100.02312046823607
100.02068130684978
100.02312046752775
100.03278429753156
100.05847583347841
100.12159499189968
100.26923765037539
100.59845898439579
101.29657126555148
102.70026144414503
105.36900511309528
110.15455559567052
118.23132145844336
131.042346955388
150.12722242388423
176.83990284803363
212.02471826496853
212.01622428427424
176.83106507881448
150.1181659862964
131.03311193757267
118.22192836952205
110.14506954339554
105.35944289246629
102.6906587138512
101.28694004360091
100.58881247928596
100.25958260205047
100.11193473691009
100.04881316531247
100.0231204729787
100.01345611616256
100.01101680861879
100.01345611545428
100.02312047087138
100.04881320526037
100.1119348374096
100.25958233134534
100.5888126820748
101.28694101532886
102.69065847149537
105.35944637834993
110.14506533491935
118.22193239125772
131.03310076644615
150.11816916649974
176.83109908509263
212.0162240327832
212.0140833353804
176.82884601859516
150.11588376979194
131.03078068524562
118.21956062112449
110.14267579285685
105.35703142657786
102.68823571492055
101.28450987328691
100.58637805055946
100.25714575841779
100.1094965853654
100.04637433794605
100.02068131501272
100.0110168120392
100.0085774636276
100.01101681133092
100.02068131290527
100.04637437789441
100.10949668586589
100.25714548771045
100.58637825334958
101.28451084502011
102.68823547256342
105.35703491247536
110.14267158436596
118.21956464287223
131.0307695140888
150.11588695000327
176.82888002495136
212.01408308388918
212.0162242858578
176.83106508045577
150.11816598798424
131.03311193929662
118.22192837127258
110.14506954516506
105.35944289424863
102.69065871564186
101.28694004539668
100.58881248108473
100.25958260385093
100.1119347387114
100.04881316711419
100.02312047478071
100.0134561179647
100.01101681042098
100.01345611725631
100.02312047267334
100.0488132070622
100.11193483921093
100.25958233314581
100.5888126838734
101.28694101712452
102.6906584732859
105.35944638013227
110.14506533668882
118.22193239300825
131.0331007681701
150.11816916818773
176.83109908673413
212.01622403436696
212.0247185206928
176.8398688464524
150.12721924822415
131.0423581310034
118.23131744143292
110.15455980881715
105.36900163202559
102.70026169127803
101.29657029863873
100.59845878641462
100.26923792587907
100.1215948962125
100.05847579834212
100.03278430444941
100.0231204730469
100.02068131166067
100.02312047233859
100.03278430234215
100.05847583828847
100.1215949967087
100.26923765518208
100.59845898919818
101.29657127034622
102.70026144892688
105.36900511785586
110.15455560039794
118.23132146312126
131.04234695999577
150.12722242839664
176.83990285242226
212.0247182692031
212.04734820344487
176.8633216219419
150.15133230857032
131.06697860558972
118.25631079210812
110.17981482422643
105.39443183225454
102.72580372372968
101.3221803869368
100.62410835964515
100.29490934779933
100.14727785352186
100.08416456388034
100.05847584065627
100.04881320769655
100.04637437691079
100.04881320698836
100.05847583854933
100.08416460382283
100.14727795400961
100.29490907712206
100.62410856241625
101.32218135859394
102.72580348139056
105.39443531794932
110.17981061595394
118.2563148136738
131.06696743489346
150.15133548866118
176.86335562709414
212.04734795195895
212.1030719779996
176.92106796210638
150.21069245203805
131.1275702060226
118.3177994406391
110.24192642841582
105.45695550152972
102.7885868947195
101.38511913860982
100.6871359356699
100.35798524335831
100.21037881147598
100.14727791496763
100.12159499996804
100.11193484073743
100.10949668577499
100.11193484002945
100.12159499786169
100.14727795490168
100.21037891194564
100.35798497272395
100.68713613841344
101.3851201101528
102.78858665240767
105.45695898690764
110.24192222049005
118.31780346191078
131.12755903607882
150.21069563193078
176.9211019652548
212.1030717265233
212.23371202147763
177.05643952738072
150.34981832233308
131.2695399860477
118.46182205837215
110.38735923408939
105.60330948385423
102.93551289409685
101.53238283368641
100.83458925801267
100.50553993049162
100.35798512746186
100.29490929330727
100.26923791366919
100.25958258990835
100.25714574285851
100.25958258920073
100.26923791156374
100.29490933322467
100.35798522789469
100.50553965994652
100.83458946069759
101.53238380498333
102.93551265184448
105.60331296852831
110.38735502694264
118.4618260789745
131.26952881783376
150.34982150176626
177.05647352585464
212.23371177002528
212.5256581699817
177.35893643910552
150.6606399458691
131.586621028576
118.78337988115945
110.71195875833475
105.92987098055904
103.26327560112824
101.8608438209275
101.16343592718175
100.83458921599278
100.68713577782547
100.62410826315912
100.59845873217449
100.58881242511266
100.58637799297205
100.58881242440572
100.59845873007114
100.62410830304458
100.68713587818638
100.8345889456244
101.16343612974856
101.86084479171939
103.26327535899847
105.92987446374343
110.71195455285596
118.78338390030923
131.5866098641514
150.660643124287
177.35897042718514
212.52565791858578
213.14602517945318
178.00167490651316
151.3209312747413
132.26001323253283
119.46605612514666
111.40087434988229
106.62276094871886
103.95856510934719
102.55750719284079
101.86084595922746
101.5323849311339
101.38512112093484
101.32218243079818
101.29657238479622
101.28694212987041
101.28451195616026
101.2869421291648
101.29657238269627
101.32218247062544
101.38512122116221
101.53238466109867
101.8608461615675
102.5575081626456
103.95856486745816
106.62276442890422
111.40087014779962
119.46606014129863
132.26000207600092
151.32093445102612
178.00170887261467
213.14602492818324
214.39584209485264
179.29646750863958
152.65081902298977
133.61590520962045
120.84021052499716
112.7871712561038
108.01669832811474
105.35705321581504
103.95856283619521
103.26327545988578
102.93551271089177
102.78858659608422
102.72580348622374
102.70026149584136
102.69065851847836
102.68823551614896
102.69065851777478
102.70026149374733
102.72580352594963
102.78858669607511
102.93551244145429
103.26327566181185
103.95856380416744
105.35705297437492
108.01670180256986
112.7871670605822
120.84021453528001
133.61589406868114
152.65082219502509
179.29650143067687
214.3958418438477
216.77636541635053
181.76248293846612
155.18319321998706
136.19710537247326
123.4554032335271
115.42473358947339
110.66817214075002
108.01670611626034
106.62276648424036
105.92987864761665
105.60331711246194
105.45696301676112
105.3944394091
105.36900925106923
105.35945051169435
105.35703904245469
105.35945051099417
105.36900924898477
105.39443944865764
105.45696311635375
105.60331684404412
105.92987884882488
106.6227674489846
108.01670587561401
110.6681756048314
115.42472940595427
123.45540723293529
136.19709426067672
155.18319638401425
181.76251677696436
216.77636516587066
221.05212919028926
186.19151147047552
159.73059384532485
140.8310283453845
128.14907026948993
120.15733735518593
115.42472532257631
112.78717071249756
111.40087155258898
110.71195807346709
110.38735850743682
110.2419255874351
110.17981404372142
110.15455906990327
110.14506880453781
110.14267505063944
110.14506880384278
110.1545590678336
110.17981408301355
110.24192568638973
110.3873582406718
110.71195827349472
111.40087251194448
112.78717047318091
115.42472876889478
120.15733319242015
128.14907424986694
140.83101728500628
159.7305969951119
186.1915451595813
221.05212894078676
228.27907741145327
193.67705967710367
167.41495668224493
148.65983104935975
136.07686029470915
128.14906963521753
123.4553943984891
120.84020934708715
119.46605271276832
118.7833785619762
118.46182069758552
118.31779796655972
118.25630937788637
118.23131606836343
118.22192699650216
118.21955924478004
118.22192699581477
118.23131606631576
118.25630941677908
118.31779806454246
118.4618204333657
118.78337876016161
119.46605366360336
120.84020910987934
123.45539781606942
128.14906550632693
136.0768642436774
148.65982007447477
167.41495980818246
193.67709311471526
228.27907716365533
239.75665889787092
205.56470864980847
179.61659226997054
161.08835054417466
148.65983015972077
140.83102682246496
136.1970957502828
133.6159031438413
132.26000896117625
131.58661882171722
131.26953773789006
131.1275678460861
131.06697630461414
131.0423558705538
131.03310967716442
131.03077842156205
131.03310967648753
131.04235586853696
131.06697634293403
131.12756794265977
131.2695374773945
131.58661901717613
132.26000989925362
133.61590290979927
136.19709912395695
140.8310227457342
148.6598340598516
161.08833970310047
179.61659535833624
205.56474168942256
239.75665865285092
256.8729631871956
223.2917398892091
197.80964003132485
179.61659112345058
167.41495464843376
159.7305911811765
155.18318260374494
152.6508158183641
151.32092590570866
150.66063660076279
150.349814936409
150.21068895644467
150.15132887070163
150.12721585002845
150.1181625881322
150.11588036841903
150.11816258746953
150.12721584805357
150.1513289082383
150.2106890510731
150.34981468109538
150.6606367923917
151.3209268256882
152.65081558882267
155.1831859140643
159.73058718020894
167.41495847703467
179.61658047946025
197.80964306404343
223.29177233708558
256.872962946407
280.8501827488411
248.12359115433472
223.29180467970846
205.5647735047759
193.67712446248436
186.19157614419183
181.7625401663369
179.29653212155117
178.0017375004653
177.35900104735032
177.05650411669507
176.9211324540774
176.86338617409592
176.8399334388348
176.831129671845
176.82891060866191
176.8311296712007
176.8399334369142
176.86338621060906
176.92113254614512
177.0565038682465
177.35900123386628
178.0017383960933
179.29653189807559
181.76254339023293
186.1915722471242
193.6771281923289
205.56476313411116
223.29180763490245
248.12362277529155
280.8501825140784
312.45123008685954
280.8501243858037
256.8729658595059
239.7566605405004
228.2790782526268
221.05212945978317
216.77635822246353
214.39584187623677
213.14602293089752
212.52565782520276
212.2337116392905
212.10307149327252
212.04734777311205
212.0247181276745
212.01622389131464
212.01408293941805
212.01622389069308
212.0247181258215
212.04734780834522
212.10307158211944
212.23371139951695
212.52565800522024
213.1460237953894
214.39584166052666
216.7763613347079
221.05212569748312
228.27908185372564
239.7566505273663
256.87296871294603
280.85015491889095
312.45122986013365

