# vtk DataFile Version 2.0
Unstructured Grid Example
ASCII
DATASET UNSTRUCTURED_GRID

POINTS 961 float
0.100000001 0.00499999989 0
0.0966666639 0.00499999989 0
0.0933333337 0.00499999989 0
0.0900000036 0.00499999989 0
0.086666666 0.00499999989 0
0.0833333358 0.00499999989 0
0.0799999982 0.00499999989 0
0.0766666681 0.00499999989 0
0.0733333305 0.00499999989 0
0.0700000003 0.00499999989 0
0.0666666701 0.00499999989 0
0.0633333325 0.00499999989 0
0.0599999987 0.00499999989 0
0.0566666685 0.00499999989 0
0.0533333346 0.00499999989 0
0.0500000007 0.00499999989 0
0.0466666669 0.00499999989 0
0.043333333 0.00499999989 0
0.0399999991 0.00499999989 0
0.0366666652 0.00499999989 0
0.0333333351 0.00499999989 0
0.0299999993 0.00499999989 0
0.0266666673 0.00499999989 0
0.0233333334 0.00499999989 0
0.0199999996 0.00499999989 0
0.0166666675 0.00499999989 0
0.0133333337 0.00499999989 0
0.00999999978 0.00499999989 0
0.00666666683 0.00499999989 0
0.00333333341 0.00499999989 0
0 0.00499999989 0
0.100000001 0.00166666671 0
0.0966666639 0.00166666671 0
0.0933333337 0.00166666671 0
0.0900000036 0.00166666671 0
0.086666666 0.00166666671 0
0.0833333358 0.00166666671 0
0.0799999982 0.00166666671 0
0.0766666681 0.00166666671 0
0.0733333305 0.00166666671 0
0.0700000003 0.00166666671 0
0.0666666701 0.00166666671 0
0.0633333325 0.00166666671 0
0.0599999987 0.00166666671 0
0.0566666685 0.00166666671 0
0.0533333346 0.00166666671 0
0.0500000007 0.00166666671 0
0.0466666669 0.00166666671 0
0.043333333 0.00166666671 0
0.0399999991 0.00166666671 0
0.0366666652 0.00166666671 0
0.0333333351 0.00166666671 0
0.0299999993 0.00166666671 0
0.0266666673 0.00166666671 0
0.0233333334 0.00166666671 0
0.0199999996 0.00166666671 0
0.0166666675 0.00166666671 0
0.0133333337 0.00166666671 0
0.00999999978 0.00166666671 0
0.00666666683 0.00166666671 0
0.00333333341 0.00166666671 0
0 0.00166666671 0
0.100000001 -0.00166666671 0
0.0966666639 -0.00166666671 0
0.0933333337 -0.00166666671 0
0.0900000036 -0.00166666671 0
0.086666666 -0.00166666671 0
0.0833333358 -0.00166666671 0
0.0799999982 -0.00166666671 0
0.0766666681 -0.00166666671 0
0.0733333305 -0.00166666671 0
0.0700000003 -0.00166666671 0
0.0666666701 -0.00166666671 0
0.0633333325 -0.00166666671 0
0.0599999987 -0.00166666671 0
0.0566666685 -0.00166666671 0
0.0533333346 -0.00166666671 0
0.0500000007 -0.00166666671 0
0.0466666669 -0.00166666671 0
0.043333333 -0.00166666671 0
0.0399999991 -0.00166666671 0
0.0366666652 -0.00166666671 0
0.0333333351 -0.00166666671 0
0.0299999993 -0.00166666671 0
0.0266666673 -0.00166666671 0
0.0233333334 -0.00166666671 0
0.0199999996 -0.00166666671 0
0.0166666675 -0.00166666671 0
0.0133333337 -0.00166666671 0
0.00999999978 -0.00166666671 0
0.00666666683 -0.00166666671 0
0.00333333341 -0.00166666671 0
0 -0.00166666671 0
0.100000001 -0.00499999989 0
0.0966666639 -0.00499999989 0
0.0933333337 -0.00499999989 0
0.0900000036 -0.00499999989 0
0.086666666 -0.00499999989 0
0.0833333358 -0.00499999989 0
0.0799999982 -0.00499999989 0
0.0766666681 -0.00499999989 0
0.0733333305 -0.00499999989 0
0.0700000003 -0.00499999989 0
0.0666666701 -0.00499999989 0
0.0633333325 -0.00499999989 0
0.0599999987 -0.00499999989 0
0.0566666685 -0.00499999989 0
0.0533333346 -0.00499999989 0
0.0500000007 -0.00499999989 0
0.0466666669 -0.00499999989 0
0.043333333 -0.00499999989 0
0.0399999991 -0.00499999989 0
0.0366666652 -0.00499999989 0
0.0333333351 -0.00499999989 0
0.0299999993 -0.00499999989 0
0.0266666673 -0.00499999989 0
0.0233333334 -0.00499999989 0
0.0199999996 -0.00499999989 0
0.0166666675 -0.00499999989 0
0.0133333337 -0.00499999989 0
0.00999999978 -0.00499999989 0
0.00666666683 -0.00499999989 0
0.00333333341 -0.00499999989 0
0 -0.00499999989 0
0.100000001 -0.00833333377 0
0.0966666639 -0.00833333377 0
0.0933333337 -0.00833333377 0
0.0900000036 -0.00833333377 0
0.086666666 -0.00833333377 0
0.0833333358 -0.00833333377 0
0.0799999982 -0.00833333377 0
0.0766666681 -0.00833333377 0
0.0733333305 -0.00833333377 0
0.0700000003 -0.00833333377 0
0.0666666701 -0.00833333377 0
0.0633333325 -0.00833333377 0
0.0599999987 -0.00833333377 0
0.0566666685 -0.00833333377 0
0.0533333346 -0.00833333377 0
0.0500000007 -0.00833333377 0
0.0466666669 -0.00833333377 0
0.043333333 -0.00833333377 0
0.0399999991 -0.00833333377 0
0.0366666652 -0.00833333377 0
0.0333333351 -0.00833333377 0
0.0299999993 -0.00833333377 0
0.0266666673 -0.00833333377 0
0.0233333334 -0.00833333377 0
0.0199999996 -0.00833333377 0
0.0166666675 -0.00833333377 0
0.0133333337 -0.00833333377 0
0.00999999978 -0.00833333377 0
0.00666666683 -0.00833333377 0
0.00333333341 -0.00833333377 0
0 -0.00833333377 0
0.100000001 -0.0116666667 0
0.0966666639 -0.0116666667 0
0.0933333337 -0.0116666667 0
0.0900000036 -0.0116666667 0
0.086666666 -0.0116666667 0
0.0833333358 -0.0116666667 0
0.0799999982 -0.0116666667 0
0.0766666681 -0.0116666667 0
0.0733333305 -0.0116666667 0
0.0700000003 -0.0116666667 0
0.0666666701 -0.0116666667 0
0.0633333325 -0.0116666667 0
0.0599999987 -0.0116666667 0
0.0566666685 -0.0116666667 0
0.0533333346 -0.0116666667 0
0.0500000007 -0.0116666667 0
0.0466666669 -0.0116666667 0
0.043333333 -0.0116666667 0
0.0399999991 -0.0116666667 0
0.0366666652 -0.0116666667 0
0.0333333351 -0.0116666667 0
0.0299999993 -0.0116666667 0
0.0266666673 -0.0116666667 0
0.0233333334 -0.0116666667 0
0.0199999996 -0.0116666667 0
0.0166666675 -0.0116666667 0
0.0133333337 -0.0116666667 0
0.00999999978 -0.0116666667 0
0.00666666683 -0.0116666667 0
0.00333333341 -0.0116666667 0
0 -0.0116666667 0
0.100000001 -0.0149999997 0
0.0966666639 -0.0149999997 0
0.0933333337 -0.0149999997 0
0.0900000036 -0.0149999997 0
0.086666666 -0.0149999997 0
0.0833333358 -0.0149999997 0
0.0799999982 -0.0149999997 0
0.0766666681 -0.0149999997 0
0.0733333305 -0.0149999997 0
0.0700000003 -0.0149999997 0
0.0666666701 -0.0149999997 0
0.0633333325 -0.0149999997 0
0.0599999987 -0.0149999997 0
0.0566666685 -0.0149999997 0
0.0533333346 -0.0149999997 0
0.0500000007 -0.0149999997 0
0.0466666669 -0.0149999997 0
0.043333333 -0.0149999997 0
0.0399999991 -0.0149999997 0
0.0366666652 -0.0149999997 0
0.0333333351 -0.0149999997 0
0.0299999993 -0.0149999997 0
0.0266666673 -0.0149999997 0
0.0233333334 -0.0149999997 0
0.0199999996 -0.0149999997 0
0.0166666675 -0.0149999997 0
0.0133333337 -0.0149999997 0
0.00999999978 -0.0149999997 0
0.00666666683 -0.0149999997 0
0.00333333341 -0.0149999997 0
0 -0.0149999997 0
0.100000001 -0.0183333326 0
0.0966666639 -0.0183333326 0
0.0933333337 -0.0183333326 0
0.0900000036 -0.0183333326 0
0.086666666 -0.0183333326 0
0.0833333358 -0.0183333326 0
0.0799999982 -0.0183333326 0
0.0766666681 -0.0183333326 0
0.0733333305 -0.0183333326 0
0.0700000003 -0.0183333326 0
0.0666666701 -0.0183333326 0
0.0633333325 -0.0183333326 0
0.0599999987 -0.0183333326 0
0.0566666685 -0.0183333326 0
0.0533333346 -0.0183333326 0
0.0500000007 -0.0183333326 0
0.0466666669 -0.0183333326 0
0.043333333 -0.0183333326 0
0.0399999991 -0.0183333326 0
0.0366666652 -0.0183333326 0
0.0333333351 -0.0183333326 0
0.0299999993 -0.0183333326 0
0.0266666673 -0.0183333326 0
0.0233333334 -0.0183333326 0
0.0199999996 -0.0183333326 0
0.0166666675 -0.0183333326 0
0.0133333337 -0.0183333326 0
0.00999999978 -0.0183333326 0
0.00666666683 -0.0183333326 0
0.00333333341 -0.0183333326 0
0 -0.0183333326 0
0.100000001 -0.0216666665 0
0.0966666639 -0.0216666665 0
0.0933333337 -0.0216666665 0
0.0900000036 -0.0216666665 0
0.086666666 -0.0216666665 0
0.0833333358 -0.0216666665 0
0.0799999982 -0.0216666665 0
0.0766666681 -0.0216666665 0
0.0733333305 -0.0216666665 0
0.0700000003 -0.0216666665 0
0.0666666701 -0.0216666665 0
0.0633333325 -0.0216666665 0
0.0599999987 -0.0216666665 0
0.0566666685 -0.0216666665 0
0.0533333346 -0.0216666665 0
0.0500000007 -0.0216666665 0
0.0466666669 -0.0216666665 0
0.043333333 -0.0216666665 0
0.0399999991 -0.0216666665 0
0.0366666652 -0.0216666665 0
0.0333333351 -0.0216666665 0
0.0299999993 -0.0216666665 0
0.0266666673 -0.0216666665 0
0.0233333334 -0.0216666665 0
0.0199999996 -0.0216666665 0
0.0166666675 -0.0216666665 0
0.0133333337 -0.0216666665 0
0.00999999978 -0.0216666665 0
0.00666666683 -0.0216666665 0
0.00333333341 -0.0216666665 0
0 -0.0216666665 0
0.100000001 -0.0250000004 0
0.0966666639 -0.0250000004 0
0.0933333337 -0.0250000004 0
0.0900000036 -0.0250000004 0
0.086666666 -0.0250000004 0
0.0833333358 -0.0250000004 0
0.0799999982 -0.0250000004 0
0.0766666681 -0.0250000004 0
0.0733333305 -0.0250000004 0
0.0700000003 -0.0250000004 0
0.0666666701 -0.0250000004 0
0.0633333325 -0.0250000004 0
0.0599999987 -0.0250000004 0
0.0566666685 -0.0250000004 0
0.0533333346 -0.0250000004 0
0.0500000007 -0.0250000004 0
0.0466666669 -0.0250000004 0
0.043333333 -0.0250000004 0
0.0399999991 -0.0250000004 0
0.0366666652 -0.0250000004 0
0.0333333351 -0.0250000004 0
0.0299999993 -0.0250000004 0
0.0266666673 -0.0250000004 0
0.0233333334 -0.0250000004 0
0.0199999996 -0.0250000004 0
0.0166666675 -0.0250000004 0
0.0133333337 -0.0250000004 0
0.00999999978 -0.0250000004 0
0.00666666683 -0.0250000004 0
0.00333333341 -0.0250000004 0
0 -0.0250000004 0
0.100000001 -0.0283333343 0
0.0966666639 -0.0283333343 0
0.0933333337 -0.0283333343 0
0.0900000036 -0.0283333343 0
0.086666666 -0.0283333343 0
0.0833333358 -0.0283333343 0
0.0799999982 -0.0283333343 0
0.0766666681 -0.0283333343 0
0.0733333305 -0.0283333343 0
0.0700000003 -0.0283333343 0
0.0666666701 -0.0283333343 0
0.0633333325 -0.0283333343 0
0.0599999987 -0.0283333343 0
0.0566666685 -0.0283333343 0
0.0533333346 -0.0283333343 0
0.0500000007 -0.0283333343 0
0.0466666669 -0.0283333343 0
0.043333333 -0.0283333343 0
0.0399999991 -0.0283333343 0
0.0366666652 -0.0283333343 0
0.0333333351 -0.0283333343 0
0.0299999993 -0.0283333343 0
0.0266666673 -0.0283333343 0
0.0233333334 -0.0283333343 0
0.0199999996 -0.0283333343 0
0.0166666675 -0.0283333343 0
0.0133333337 -0.0283333343 0
0.00999999978 -0.0283333343 0
0.00666666683 -0.0283333343 0
0.00333333341 -0.0283333343 0
0 -0.0283333343 0
0.100000001 -0.0316666663 0
[...]
POINT_DATA 961
SCALARS Temp float 1
LOOKUP_TABLE default
305.9971215275228
274.317540116534
250.58535060763762
233.93294349237425
223.0050966258822
216.29910871421183
212.4466871567691
210.37076105470192
209.3186563541232
208.8155957200888
208.5878996197214
208.49000854348643
208.44991379026922
208.4342712451393
208.4286102441954
208.4272175788896
208.4286102437901
208.43427124389243
208.44991381520876
208.49000860905656
208.58789943656103
208.81559586333424
209.31865707082994
210.37076087439962
212.44668992101813
216.29910528496455
223.0051000161874
233.9329338637718
250.5853534106556
274.31757053429317
305.9971212832764
274.317572698162
241.51501863254032
216.94079768161535
199.69682135593072
188.38016994748875
181.43515710631803
177.44514328922446
175.29491078089669
174.2050592739399
173.6839068708128
173.44800214189434
173.3465734376041
173.30502625110393
173.28881574507517
173.2829487760291
173.28150537162125
173.28294877560893
173.28881574378295
173.30502627694787
173.34657350554593
173.4480019521225
173.6839070192159
174.20506001638518
175.29491059412248
177.44514615229605
181.4351535546889
188.38017345851364
199.6968113849885
216.94080058413866
241.5150501290307
274.3175724452983
250.5853550654942
216.94076769330323
191.73361083723478
174.04349320180717
162.43241523746838
155.3055286530715
151.21025793101322
149.0028509861449
147.88377780270878
147.34853150359655
147.10619139459888
147.0019717032618
146.95927150091066
146.94260742547434
146.93657509789463
146.93509081659525
146.93657509746257
146.9426074241458
146.9592715274743
147.00197177307928
147.106191199627
147.34853165602988
147.88377856513074
149.0028507943542
151.21026086987627
155.30552500801636
162.43241884010166
174.04348297210487
191.73361381465978
216.94079999963253
250.5853548062521
233.93293415109508
199.69677646785934
174.043478458145
156.0374932711872
144.21681784447497
136.9596275160873
132.7884038986728
130.53942012531627
129.39892398697637
128.85325870171943
128.606121037782
128.4998032181228
128.45622910909813
128.43921855393089
128.43305902863878
128.43154316082283
128.43305902819768
128.43921855257443
128.45622913620895
128.49980328935453
128.60612083891675
128.8532588571445
129.39892476409364
130.5394199298416
132.7884068924129
136.95962380380354
144.21682151250548
156.03748285773457
174.0434814884672
199.69680934406466
233.93293388745147
223.00510041267913
188.3801382526414
162.43241438672317
144.21683216310527
132.25613102779357
124.91119618775431
120.6883712283139
118.41086834596801
117.25552832499294
116.70256845431078
116.45203653496841
116.34421875638733
116.30001348076178
116.28275023066276
116.27649713255799
116.27495789712566
116.27649713211015
116.28275022928591
116.30001350826939
116.34421882863397
116.45203633333365
116.7025686118411
117.25552911233584
118.41086814793556
120.68837425949441
124.9111924299535
132.25613473966604
144.21682162727308
162.43241745203773
188.38017150414845
223.005100146209
216.2991069596738
181.43511942511432
155.30552187904186
136.95963591255708
124.91119008833437
117.51075859058884
113.25495466392914
110.9590175305143
109.79396747453433
109.23617679894564
108.98336887169327
108.87453273738474
108.82989369589686
108.81245474508951
108.80613591082509
108.80458014908584
108.80613591037232
108.81245474369821
108.82989372367831
108.87453281032373
108.98336866818943
109.23617695787873
109.79396826860031
110.95901733080463
113.25495771915834
117.51075480381587
124.91119382779206
136.95962530031582
155.3055249660335
181.43515290789156
216.29910669151516
212.44669021604847
177.44511045098406
151.21025625459322
132.78841755134903
120.68837038822743
113.25495999184038
108.97932663333313
106.67216262464414
105.50111816338452
104.94030303163736
104.68604965287578
104.57655747620625
104.5316350383674
104.51407973679227
104.5077168495739
104.50614992699373
104.50771684911778
104.5140797353913
104.53163506632883
104.57655754959357
104.68604944817575
104.94030319145482
105.501118961625
106.67216242389637
108.97932970310411
113.25495618772729
120.68837414398206
132.78840689435634
151.21025935417094
177.4451440672428
212.44668994695076
210.37076155822794
175.29487521820826
149.0028465817726
130.53943103418308
118.41086469353611
110.95902003906049
106.67215977771818
104.35854968913948
103.1840116745695
102.6214062626164
102.36628357195558
102.2563904949189
102.21129212215835
102.19366348447232
102.18727245574296
102.18569834149636
102.18727245528481
102.19366348306525
102.21129215023231
102.25639056858178
102.36628336653008
102.62140642296136
103.18401247525871
104.3585494877848
106.67216285577354
110.95901622517923
118.41086845834262
130.53942035256713
149.00284968821097
175.2949089067613
210.3707612886427
209.318657541381
174.20502438017763
147.8837741202802
129.39893564993574
117.25552541891199
109.79397074397069
105.50111607387548
103.18401243850953
102.00755050661994
101.4439425144868
101.18832453931988
101.07819904082542
101.03299689061103
101.01532426670362
101.00891610816592
101.0073375745599
101.00891610770654
101.01532426529292
101.03299691875183
101.07819911464925
101.18832433347725
101.44394267512976
102.00755130866722
103.1840122368197
105.5011191563837
109.7939669249018
117.25552918845473
129.3989249555642
147.88377723023868
174.2050581055667
209.3186572715588
208.81559603664536
173.6838710561494
147.34852689227046
128.85326942671512
116.70256458920183
109.23617910516754
104.94029997002329
102.62140605356485
101.44394153913346
100.87980177251487
100.62391624929522
100.51366284314736
100.46840251101342
100.45070477905385
100.44428668578578
100.44270556279459
100.44428668532568
100.45070477764108
100.46840253919198
100.51366291706043
100.62391604322508
100.87980193331734
101.44394234189366
102.62140585169986
104.94030305479357
109.23617528349591
116.70256836108472
128.85325872610576
147.34853000393346
173.68390479924912
208.81559576671506
208.5878997497623
173.44796612537218
147.10618658352556
128.60613156313482
116.45203246339764
108.9833709714385
104.68604638174948
102.3662831536669
101.18832335395393
100.623916039486
100.3678933199855
100.25757303346681
100.21228167774345
100.19457030044822
100.18814671632762
100.18656414670258
100.18814671586715
100.19457029903427
100.21228170594236
100.25757310742681
100.36789311379746
100.62391620036956
101.18832415706908
102.36628295171528
104.68604946760856
108.9833671485301
116.45203623637556
128.6061208596374
147.10618969597013
173.447999876533
208.58789947978562
208.490008862816
173.34653761348375
147.00196709316774
128.49981395027024
116.3442148927184
108.87453504781642
104.57655441618287
102.25639028895162
101.07819806804875
100.51366284637122
100.25757324668234
100.14721969643446
100.10191259460314
100.08419415310381
100.0777676761537
100.07618433582383
100.07776767569305
100.08419415168922
100.10191262281238
100.14721977041803
100.2575730404361
100.51366300729389
101.07819887133185
102.25639008695924
104.57655750253981
108.87453122434994
116.34421866618295
128.4998032455029
147.00197020595272
173.3465713681295
208.49000859282046
208.44991408125202
173.30499039608037
146.95926686042137
128.45623981098794
116.30000958566053
108.82989597496105
104.53163194642883
102.21129188436153
101.0329958858618
100.46840248232031
100.21228185905035
100.10191256265614
100.056597851912
100.0388759272875
100.03244799834438
100.03086426677925
100.0324479978836
100.03887592587266
100.05659788012628
100.10191263665097
100.21228165277684
100.4684026432609
101.03299668922043
102.21129168235085
104.53163503300227
108.82989215125497
116.3000133593308
128.4562291056889
146.95926997334735
173.30502415216148
208.44991381124908
208.43427151432144
173.28877986685916
146.9426027616772
128.4392292323283
116.28274631142357
108.81245699991882
104.51407662031154
102.19366322211587
101.01532323730218
100.45070472571392
100.194570457102
100.08419409648138
100.03887590260942
100.02115235171641
100.01472373294514
100.01313981345767
100.01472373248426
100.02115235030139
100.03887593082598
100.08419417048118
100.19457025081631
100.45070488666227
101.01532404069309
102.19366302009745
104.51407970697443
108.81245317611473
116.28275008517669
128.43921852681737
146.942605874659
173.2888136235031
208.4342712443157
208.42861051622572
173.28291290054602
146.93657043710024
128.43306971021102
116.27649321643008
108.80613816885204
104.50771373625588
102.18727219659422
101.00891508196719
100.44428663566856
100.18814687621152
100.07776762275749
100.03244797689392
100.0147237361739
100.00829482030386
100.0067108191061
100.008294819843
100.01472373475875
100.03244800511128
100.07776769675922
100.18814666992084
100.44428679662003
101.00891588537071
102.18727199457271
104.50771682295291
108.80613434501113
116.27649699021407
128.43305900462198
146.93657355010237
173.28294665739463
208.42861024621905
208.42721785287753
173.28146949811344
146.93508615787965
128.43155384454508
116.27495398315321
108.804582409305
104.50614681586931
102.18569808455918
101.00733655057552
100.44270551489929
100.18656430881164
100.07618428465234
100.03086424755438
100.01313981891256
100.00671082133226
100.00512679752843
100.00671082087136
100.01313981749729
100.03086427577198
100.07618435865463
100.18656410251967
100.44270567585153
101.00733735398227
102.18569788253687
104.50614990257499
108.80457858545475
116.27495775694486
128.43154313893655
146.93508927088692
173.2815032550126
208.42721758287084
208.4286105172778
173.28291290163648
146.93657043822142
128.43306971135587
116.27649321759237
108.80613817002657
104.50771373743869
102.18727219778228
101.00891508315846
100.44428663686169
100.18814687740569
100.07776762395217
100.03244797808881
100.01472373736895
100.00829482149898
100.00671082030127
100.00829482103804
100.01472373595377
100.03244800630621
100.07776769795392
100.18814667111499
100.44428679781304
101.00891588656187
102.18727199576067
104.50771682413567
108.8061343461856
116.27649699137632
128.43305900576684
146.93657355122357
173.28294665848517
208.42861024727122
208.43427151721454
173.28877986985736
146.94260276475944
128.4392292354748
116.28274631461724
108.8124570031454
104.51407662355989
102.1936632253781
101.01532324057268
100.45070472898924
100.19457046037992
100.08419409976065
100.03887590588937
100.02115235499669
100.01472373622546
100.01313981673806
100.01472373576452
100.0211523535815
100.03887593410589
100.0841941737605
100.19457025409417
100.4507048899374
101.0153240439634
102.19366302335946
104.51407971022267
108.81245317934123
116.28275008837026
128.43921852996385
146.9426058777412
173.28881362650114
208.4342712472087
208.449914088741
173.3049904038409
146.95926686839778
128.45623981912837
116.30000959391975
108.82989598330225
104.53163195482384
102.21129189279007
101.0329958943103
100.46840249078008
100.21228186751605
100.101912571125
100.05659786038231
100.03887593575845
100.03244800681549
100.03086427525045
100.03244800635468
100.0388759343435
100.05659788859654
100.1019126451197
100.2122816612425
100.46840265172044
101.03299669766866
102.21129169077925
104.53163504139714
108.82989215959604
116.30001336759003
128.4562291138292
146.95926998132356
173.30502415992171
208.44991381873797
208.49000888325173
173.34653763465852
147.00196711492677
128.49981397246964
116.34421491523361
108.87453507054688
104.5765544390527
102.25639031190708
101.07819809105416
100.51366286940429
100.25757326972987
100.14721971948934
100.10191261766147
100.08419417616358
100.0777676992141
100.0761843588843
100.0777676987534
100.08419417474899
100.10191264587047
100.14721979347271
100.2575730634835
100.51366303032668
101.07819889433705
102.25639010991445
104.57655752540947
108.87453124708036
116.34421868869796
128.49980326770216
147.00197022771147
173.34657138930416
208.49000861325592
208.58789988409046
173.44796626454772
147.1061867265109
128.6061317089702
116.45203261125789
108.98337112066342
104.6860465318462
102.36628330429154
101.18832350488145
100.62391619057844
100.36789347116313
100.25757318468635
100.21228182898267
100.19457045169594
100.18814686757882
100.18656429795469
100.18814686711833
100.19457045028192
100.21228185718135
100.25757325864623
100.36789326497494
100.62391635146177
101.1883243079964
102.36628310233976
104.68604961770525
108.98336729775495
116.45203638423568
128.60612100547266
147.10618983895532
173.4480000157082
208.58789961411355
208.81559595460388
173.68387097115215
147.34852680495962
128.85326933768326
116.70256449895557
109.23617901410965
104.94029987845163
102.6214059616856
101.44394144707971
100.8798016803672
100.62391615709963
100.51366275092855
100.46840241878374
100.45070468681938
100.4442865935494
100.44270547055768
100.44428659308929
100.45070468540659
100.46840244696226
100.51366282484146
100.62391595102939
100.8798018411696
101.44394224983982
102.62140575982058
104.94030296322192
109.2361751924379
116.7025682708385
128.8532586370739
147.34852991662268
173.68390471425164
208.81559568467358
209.31865816296195
174.20502502408297
147.8837747815161
129.3989363239239
117.25552610177697
109.79397143267424
105.50111676620622
103.1840131329689
102.00755120226064
101.44394321074788
101.18832523588998
101.0781997375417
101.03299758739315
101.01532496351379
101.00891680498718
101.00733827138403
101.00891680452789
101.01532496210322
101.03299761553399
101.07819981136562
101.18832503004744
101.44394337139084
102.00755200430781
103.18401293127907
105.5011198487143
109.79396761360535
117.25552987131977
129.39892562955237
147.88377789147455
174.20505874947207
209.3186578931399
210.37076118616804
175.29487483280755
149.00284618605966
130.53943063092564
118.41086428506402
110.95901962718742
106.67215936375257
104.35854927395907
103.18401125872286
102.62140584642401
102.3662831555931
102.25639007847698
102.21129170568106
102.19366306798014
102.18727203924502
102.185697924997
102.18727203878706
102.19366306657331
102.21129173375523
102.25639015214004
102.3662829501678
102.62140600676906
103.18401205941205
104.35854907260442
106.67216244180796
110.9590158133061
118.41086804987052
130.53941994930975
149.0028492924983
175.29490852136067
210.37076091658287
212.4466934686026
177.4451138198232
151.21025971262756
132.7884210739761
120.68837395493334
113.25496358686553
108.97933024548763
106.67216624656031
105.50112179054918
104.94030666146945
104.68605328399211
104.57656110790988
104.53163867032652
104.51408336885713
104.50772048167897
104.50615355910912
104.50772048122307
104.51408336745635
104.5316386982882
104.57656118129741
104.68605307929225
104.9403068212869
105.50112258878964
106.67216604581239
108.97933331525847
113.25495978275242
120.68837771068786
132.78841041698354
151.21026281220517
177.44514743608204
212.4466931995048
216.299108405031
181.43512092201127
155.30552341520004
136.95963747688734
124.91119167167221
117.51076018597655
113.25495626649682
110.9590191371074
109.79396908325472
109.23617840872801
108.98337048197797
108.87453434789502
108.82989530650346
108.81245635573535
108.80613752148572
108.80458175975019
108.8061375210331
108.81245635434425
108.82989533428513
108.87453442083405
108.98337027847415
109.23617856766123
109.79396987732065
110.95901893739757
113.25495932172564
117.5107563992035
124.91119541112981
136.95962686464603
155.3055265021916
181.43515440478836
216.2991081368724
223.0050957573447
188.38013343149902
162.4324094396693
144.21682712608174
132.25612593038528
124.91119105230176
120.68836607035185
118.41086317548361
117.25552314794541
116.70256327401506
116.45203135315047
116.34421357389185
116.30000829797915
116.28274504776455
116.27649194961666
116.2749527141736
116.27649194916889
116.28274504638776
116.3000083254868
116.34421364613864
116.4520311515158
116.70256343154543
117.25552393528818
118.41086297745085
120.68836910153213
124.91118729450072
132.2561296422576
144.21681659024932
162.43241250498374
188.38016668300614
223.0050954908744
233.93294182177334
199.69678441123673
174.0434866075882
156.03750156690955
144.21682623757962
136.95963596996486
132.7884123881259
130.53942863433343
129.3989325061232
128.8532672258173
128.60612956417128
128.49981174551922
128.45623763691603
128.43922708191653
128.43306755668644
128.43155168888592
128.43306755624533
128.43922708056022
128.45623766402682
128.4998118167509
128.606129365306
128.85326738124243
129.39893328324024
130.53942843885847
132.7884153818654
136.95963225768045
144.2168299056098
156.03749115345673
174.0434896379101
199.69681728744155
233.93294155812956
250.5853478838525
216.9407602566836
191.7336032086158
174.04348543753397
162.4324073834122
155.3055207433682
151.2102499889852
149.00284302648848
147.8837698340053
147.34852353051122
147.10618341950445
147.0019637272923
146.95926352457832
146.94259944899872
146.93656712136638
146.93508284005412
146.93656712093448
146.94259944767015
146.95926355114204
147.0019637971097
147.10618322453257
147.34852368294455
147.88377059642715
149.0028428346975
151.2102529278478
155.30551709831246
162.43241098604497
174.04347520783108
191.7336061860403
216.94079256301282
250.58534762461008
274.31759815257584
241.51504498965733
216.94082471639945
199.69684886756377
188.3801977731434
181.43518512546817
177.44517142004588
175.29493897219476
174.20508749605
173.68393510773583
173.4480303855589
173.34660168418296
173.30505449888275
173.28884399332478
173.2829770244495
173.2815336200841
173.28297702402966
173.28884399203264
173.3050545247269
173.34660175212483
173.448030195787
173.6839352561387
174.205088238495
175.2949387854203
177.445174283117
181.43518157383866
188.38020128416775
199.6968388966214
216.940827618922
241.5150764861463
274.3175978997121
305.99712138946273
274.31753997360755
250.58535046111876
233.93294334338447
223.00509647531217
216.2991085627018
212.4466870047388
210.3707609024029
209.3186562016942
208.81559556760078
208.58789946720825
208.49000839096306
208.44991363774167
208.4342710926103
208.4286100916658
208.42721742636002
208.42861009126077
208.43427109136357
208.44991366268133
208.49000845653296
208.58789928404758
208.8155957108462
209.3186569184008
210.37076072210033
212.4466897689875
216.2991051334543
223.005099865617
233.93293371478165
250.58535326413622
274.31757039136653
305.9971211452159

