# vtk DataFile Version 2.0
Unstructured Grid Example
ASCII
DATASET UNSTRUCTURED_GRID

POINTS 961 float
0.100000001 0.00499999989 0
0.0966666639 0.00499999989 0
0.0933333337 0.00499999989 0
0.0900000036 0.00499999989 0
0.086666666 0.00499999989 0
0.0833333358 0.00499999989 0
0.0799999982 0.00499999989 0
0.0766666681 0.00499999989 0
0.0733333305 0.00499999989 0
0.0700000003 0.00499999989 0
0.0666666701 0.00499999989 0
0.0633333325 0.00499999989 0
0.0599999987 0.00499999989 0
0.0566666685 0.00499999989 0
0.0533333346 0.00499999989 0
0.0500000007 0.00499999989 0
0.0466666669 0.00499999989 0
0.043333333 0.00499999989 0
0.0399999991 0.00499999989 0
0.0366666652 0.00499999989 0
0.0333333351 0.00499999989 0
0.0299999993 0.00499999989 0
0.0266666673 0.00499999989 0
0.0233333334 0.00499999989 0
0.0199999996 0.00499999989 0
0.0166666675 0.00499999989 0
0.0133333337 0.00499999989 0
0.00999999978 0.00499999989 0
0.00666666683 0.00499999989 0
0.00333333341 0.00499999989 0
0 0.00499999989 0
0.100000001 0.00166666671 0
0.0966666639 0.00166666671 0
0.0933333337 0.00166666671 0
0.0900000036 0.00166666671 0
0.086666666 0.00166666671 0
0.0833333358 0.00166666671 0
0.0799999982 0.00166666671 0
0.0766666681 0.00166666671 0
0.0733333305 0.00166666671 0
0.0700000003 0.00166666671 0
0.0666666701 0.00166666671 0
0.0633333325 0.00166666671 0
0.0599999987 0.00166666671 0
0.0566666685 0.00166666671 0
0.0533333346 0.00166666671 0
0.0500000007 0.00166666671 0
0.0466666669 0.00166666671 0
0.043333333 0.00166666671 0
0.0399999991 0.00166666671 0
0.0366666652 0.00166666671 0
0.0333333351 0.00166666671 0
0.0299999993 0.00166666671 0
0.0266666673 0.00166666671 0
0.0233333334 0.00166666671 0
0.0199999996 0.00166666671 0
0.0166666675 0.00166666671 0
0.0133333337 0.00166666671 0
0.00999999978 0.00166666671 0
0.00666666683 0.00166666671 0
0.00333333341 0.00166666671 0
0 0.00166666671 0
0.100000001 -0.00166666671 0
0.0966666639 -0.00166666671 0
0.0933333337 -0.00166666671 0
0.0900000036 -0.00166666671 0
0.086666666 -0.00166666671 0
0.0833333358 -0.00166666671 0
0.0799999982 -0.00166666671 0
0.0766666681 -0.00166666671 0
0.0733333305 -0.00166666671 0
0.0700000003 -0.00166666671 0
0.0666666701 -0.00166666671 0
0.0633333325 -0.00166666671 0
0.0599999987 -0.00166666671 0
0.0566666685 -0.00166666671 0
0.0533333346 -0.00166666671 0
0.0500000007 -0.00166666671 0
0.0466666669 -0.00166666671 0
0.043333333 -0.00166666671 0
0.0399999991 -0.00166666671 0
0.0366666652 -0.00166666671 0
0.0333333351 -0.00166666671 0
0.0299999993 -0.00166666671 0
0.0266666673 -0.00166666671 0
0.0233333334 -0.00166666671 0
0.0199999996 -0.00166666671 0
0.0166666675 -0.00166666671 0
0.0133333337 -0.00166666671 0
0.00999999978 -0.00166666671 0
0.00666666683 -0.00166666671 0
0.00333333341 -0.00166666671 0
0 -0.00166666671 0
0.100000001 -0.00499999989 0
0.0966666639 -0.00499999989 0
0.0933333337 -0.00499999989 0
0.0900000036 -0.00499999989 0
0.086666666 -0.00499999989 0
0.0833333358 -0.00499999989 0
0.0799999982 -0.00499999989 0
0.0766666681 -0.00499999989 0
0.0733333305 -0.00499999989 0
0.0700000003 -0.00499999989 0
0.0666666701 -0.00499999989 0
0.0633333325 -0.00499999989 0
0.0599999987 -0.00499999989 0
0.0566666685 -0.00499999989 0
0.0533333346 -0.00499999989 0
0.0500000007 -0.00499999989 0
0.0466666669 -0.00499999989 0
0.043333333 -0.00499999989 0
0.0399999991 -0.00499999989 0
0.0366666652 -0.00499999989 0
0.0333333351 -0.00499999989 0
0.0299999993 -0.00499999989 0
0.0266666673 -0.00499999989 0
0.0233333334 -0.00499999989 0
0.0199999996 -0.00499999989 0
0.0166666675 -0.00499999989 0
0.0133333337 -0.00499999989 0
0.00999999978 -0.00499999989 0
0.00666666683 -0.00499999989 0
0.00333333341 -0.00499999989 0
0 -0.00499999989 0
0.100000001 -0.00833333377 0
0.0966666639 -0.00833333377 0
0.0933333337 -0.00833333377 0
0.0900000036 -0.00833333377 0
0.086666666 -0.00833333377 0
0.0833333358 -0.00833333377 0
0.0799999982 -0.00833333377 0
0.0766666681 -0.00833333377 0
0.0733333305 -0.00833333377 0
0.0700000003 -0.00833333377 0
0.0666666701 -0.00833333377 0
0.0633333325 -0.00833333377 0
0.0599999987 -0.00833333377 0
0.0566666685 -0.00833333377 0
0.0533333346 -0.00833333377 0
0.0500000007 -0.00833333377 0
0.0466666669 -0.00833333377 0
0.043333333 -0.00833333377 0
0.0399999991 -0.00833333377 0
0.0366666652 -0.00833333377 0
0.0333333351 -0.00833333377 0
0.0299999993 -0.00833333377 0
0.0266666673 -0.00833333377 0
0.0233333334 -0.00833333377 0
0.0199999996 -0.00833333377 0
0.0166666675 -0.00833333377 0
0.0133333337 -0.00833333377 0
0.00999999978 -0.00833333377 0
0.00666666683 -0.00833333377 0
0.00333333341 -0.00833333377 0
0 -0.00833333377 0
0.100000001 -0.0116666667 0
0.0966666639 -0.0116666667 0
0.0933333337 -0.0116666667 0
0.0900000036 -0.0116666667 0
0.086666666 -0.0116666667 0
0.0833333358 -0.0116666667 0
0.0799999982 -0.0116666667 0
0.0766666681 -0.0116666667 0
0.0733333305 -0.0116666667 0
0.0700000003 -0.0116666667 0
0.0666666701 -0.0116666667 0
0.0633333325 -0.0116666667 0
0.0599999987 -0.0116666667 0
0.0566666685 -0.0116666667 0
0.0533333346 -0.0116666667 0
0.0500000007 -0.0116666667 0
0.0466666669 -0.0116666667 0
0.043333333 -0.0116666667 0
0.0399999991 -0.0116666667 0
0.0366666652 -0.0116666667 0
0.0333333351 -0.0116666667 0
0.0299999993 -0.0116666667 0
0.0266666673 -0.0116666667 0
0.0233333334 -0.0116666667 0
0.0199999996 -0.0116666667 0
0.0166666675 -0.0116666667 0
0.0133333337 -0.0116666667 0
0.00999999978 -0.0116666667 0
0.00666666683 -0.0116666667 0
0.00333333341 -0.0116666667 0
0 -0.0116666667 0
0.100000001 -0.0149999997 0
0.0966666639 -0.0149999997 0
0.0933333337 -0.0149999997 0
0.0900000036 -0.0149999997 0
0.086666666 -0.0149999997 0
0.0833333358 -0.0149999997 0
0.0799999982 -0.0149999997 0
0.0766666681 -0.0149999997 0
0.0733333305 -0.0149999997 0
0.0700000003 -0.0149999997 0
0.0666666701 -0.0149999997 0
0.0633333325 -0.0149999997 0
0.0599999987 -0.0149999997 0
0.0566666685 -0.0149999997 0
0.0533333346 -0.0149999997 0
0.0500000007 -0.0149999997 0
0.0466666669 -0.0149999997 0
0.043333333 -0.0149999997 0
0.0399999991 -0.0149999997 0
0.0366666652 -0.0149999997 0
0.0333333351 -0.0149999997 0
0.0299999993 -0.0149999997 0
0.0266666673 -0.0149999997 0
0.0233333334 -0.0149999997 0
0.0199999996 -0.0149999997 0
0.0166666675 -0.0149999997 0
0.0133333337 -0.0149999997 0
0.00999999978 -0.0149999997 0
0.00666666683 -0.0149999997 0
0.00333333341 -0.0149999997 0
0 -0.0149999997 0
0.100000001 -0.0183333326 0
0.0966666639 -0.0183333326 0
0.0933333337 -0.0183333326 0
0.0900000036 -0.0183333326 0
0.086666666 -0.0183333326 0
0.0833333358 -0.0183333326 0
0.0799999982 -0.0183333326 0
0.0766666681 -0.0183333326 0
0.0733333305 -0.0183333326 0
0.0700000003 -0.0183333326 0
0.0666666701 -0.0183333326 0
0.0633333325 -0.0183333326 0
0.0599999987 -0.0183333326 0
0.0566666685 -0.0183333326 0
0.0533333346 -0.0183333326 0
0.0500000007 -0.0183333326 0
0.0466666669 -0.0183333326 0
0.043333333 -0.0183333326 0
0.0399999991 -0.0183333326 0
0.0366666652 -0.0183333326 0
0.0333333351 -0.0183333326 0
0.0299999993 -0.0183333326 0
0.0266666673 -0.0183333326 0
0.0233333334 -0.0183333326 0
0.0199999996 -0.0183333326 0
0.0166666675 -0.0183333326 0
0.0133333337 -0.0183333326 0
0.00999999978 -0.0183333326 0
0.00666666683 -0.0183333326 0
0.00333333341 -0.0183333326 0
0 -0.0183333326 0
0.100000001 -0.0216666665 0
0.0966666639 -0.0216666665 0
0.0933333337 -0.0216666665 0
0.0900000036 -0.0216666665 0
0.086666666 -0.0216666665 0
0.0833333358 -0.0216666665 0
0.0799999982 -0.0216666665 0
0.0766666681 -0.0216666665 0
0.0733333305 -0.0216666665 0
0.0700000003 -0.0216666665 0
0.0666666701 -0.0216666665 0
0.0633333325 -0.0216666665 0
0.0599999987 -0.0216666665 0
0.0566666685 -0.0216666665 0
0.0533333346 -0.0216666665 0
0.0500000007 -0.0216666665 0
0.0466666669 -0.0216666665 0
0.043333333 -0.0216666665 0
0.0399999991 -0.0216666665 0
0.0366666652 -0.0216666665 0
0.0333333351 -0.0216666665 0
0.0299999993 -0.0216666665 0
0.0266666673 -0.0216666665 0
0.0233333334 -0.0216666665 0
0.0199999996 -0.0216666665 0
0.0166666675 -0.0216666665 0
0.0133333337 -0.0216666665 0
0.00999999978 -0.0216666665 0
0.00666666683 -0.0216666665 0
0.00333333341 -0.0216666665 0
0 -0.0216666665 0
0.100000001 -0.0250000004 0
0.0966666639 -0.0250000004 0
0.0933333337 -0.0250000004 0
0.0900000036 -0.0250000004 0
0.086666666 -0.0250000004 0
0.0833333358 -0.0250000004 0
0.0799999982 -0.0250000004 0
0.0766666681 -0.0250000004 0
0.0733333305 -0.0250000004 0
0.0700000003 -0.0250000004 0
0.0666666701 -0.0250000004 0
0.0633333325 -0.0250000004 0
0.0599999987 -0.0250000004 0
0.0566666685 -0.0250000004 0
0.0533333346 -0.0250000004 0
0.0500000007 -0.0250000004 0
0.0466666669 -0.0250000004 0
0.043333333 -0.0250000004 0
0.0399999991 -0.0250000004 0
0.0366666652 -0.0250000004 0
0.0333333351 -0.0250000004 0
0.0299999993 -0.0250000004 0
0.0266666673 -0.0250000004 0
0.0233333334 -0.0250000004 0
0.0199999996 -0.0250000004 0
0.0166666675 -0.0250000004 0
0.0133333337 -0.0250000004 0
0.00999999978 -0.0250000004 0
0.00666666683 -0.0250000004 0
0.00333333341 -0.0250000004 0
0 -0.0250000004 0
0.100000001 -0.0283333343 0
0.0966666639 -0.0283333343 0
0.0933333337 -0.0283333343 0
0.0900000036 -0.0283333343 0
0.086666666 -0.0283333343 0
0.0833333358 -0.0283333343 0
0.0799999982 -0.0283333343 0
0.0766666681 -0.0283333343 0
0.0733333305 -0.0283333343 0
0.0700000003 -0.0283333343 0
0.0666666701 -0.0283333343 0
0.0633333325 -0.0283333343 0
0.0599999987 -0.0283333343 0
0.0566666685 -0.0283333343 0
0.0533333346 -0.0283333343 0
0.0500000007 -0.0283333343 0
0.0466666669 -0.0283333343 0
0.043333333 -0.0283333343 0
0.0399999991 -0.0283333343 0
0.0366666652 -0.0283333343 0
0.0333333351 -0.0283333343 0
0.0299999993 -0.0283333343 0
0.0266666673 -0.0283333343 0
0.0233333334 -0.0283333343 0
0.0199999996 -0.0283333343 0
0.0166666675 -0.0283333343 0
0.0133333337 -0.0283333343 0
0.00999999978 -0.0283333343 0
0.00666666683 -0.0283333343 0
0.00333333341 -0.0283333343 0
0 -0.0283333343 0
0.100000001 -0.0316666663 0
[...]
POINT_DATA 961
SCALARS Temp float 1
LOOKUP_TABLE default
324.5635314899431
293.13873791687433
268.7757041829398
250.87400521621657
238.4268810012691
230.24306352059088
225.15435540104065
222.15962362040946
220.48937564004228
219.60503661900083
219.15964573750537
218.94582488657787
218.84783626500408
218.80510940941417
218.78800611619266
218.78351032896654
218.78800611488796
218.80510940573615
218.8478363288182
218.94582503600952
219.15964535782317
219.60503688429156
220.4893768268133
222.1596233291052
225.15435919692962
230.2430591308433
238.42688498152
250.8739945399161
268.775707121523
293.138768605555
324.56353129541014
293.13877073210807
260.5856957461899
235.3474112643229
216.80208371759755
203.90700647530304
195.42832678886657
190.1560325419915
187.0531028111684
185.32241548835825
184.4060231356804
183.944461190151
183.7228634301025
183.62130457419522
183.57701828620492
183.55928981357124
183.55462953159227
183.55928981221868
183.57701828239266
183.62130464033626
183.72286358497288
183.94446079667037
184.40602341059486
185.32241671810343
187.0531025093205
190.15603647491386
195.42832224083241
203.9070105988701
216.80207265724954
235.34741430851545
260.58572753704584
293.1387705306219
268.77570878957874
235.34738112788094
209.42908000889392
190.3826670630911
177.13795698511186
168.42844219545717
163.01193520367897
159.82369243920337
158.0451562912074
157.10327960509176
156.62880391180644
156.40096777180102
156.2965320616588
156.2509836910283
156.23274728944116
156.22795303386695
156.23274728804975
156.25098368710692
156.29653212967833
156.40096793104172
156.6288035072804
157.10327988767446
158.04515755503598
159.82369212900306
163.0119392444259
168.4284375232537
177.1379612206876
190.3826557033482
209.4290831352188
235.34741377439613
268.77570858276255
250.8739947695557
216.80203731314108
190.3826509518751
170.96600005773658
157.4620870310376
148.58076152279318
143.05643295373812
139.80408865699602
137.98940870550004
137.02817383109505
136.54383184554797
136.31120137150242
136.20454168235034
136.1580120668795
136.139378773523
136.13447949762966
136.13937877210122
136.158012062873
136.20454175182536
136.31120153410956
136.54383143255612
137.02817411951926
137.98940999513547
139.80408834048154
143.056437075279
148.58075675792094
157.46209134979782
170.96598847638677
190.38265413880023
216.80207058951981
250.87399455888308
238.42688533736427
203.90697491633352
177.1379565373121
157.46210322045798
143.7759666885972
134.77326165168583
129.17233456118942
125.87417104646264
124.03348502049674
123.05822473025957
122.56668301546912
122.33052837487979
122.22222194491464
122.17496062367233
122.15602953185842
122.15105114631602
122.15602953041383
122.174960619602
122.2222220154706
122.33052853996814
122.56668259627526
123.0582250229311
124.03348632875525
125.8741707254006
129.17233874028534
134.77325682112686
143.7759710659648
157.46209148362172
177.13795976658992
203.90700863164002
238.4268851240621
230.24306112503183
195.42828794647076
168.42843453991102
148.5807705082706
134.77325420426354
125.68922827746611
120.03664344407505
116.70735456335332
114.8488639810342
113.86392219710211
113.36736817462108
113.12873872237991
113.01926580950418
112.97148180889512
112.95233641897961
112.94730083992938
112.95233641751832
112.97148180477873
113.0192658808285
113.12873888921675
113.36736775108918
113.86392249271789
114.84886530208752
116.70735423917452
120.0366476621121
125.6892234027257
134.77325862077032
148.58075866810546
168.4284377972053
195.42832195113212
230.2430609100415
225.15435944022835
190.1560001737026
163.01193437022442
143.0564489890124
129.17233417005724
120.03665060834201
114.35100432877142
111.00162933234034
109.13154597368785
108.14024078774703
107.64035995718106
107.40007143925754
107.28980868145315
107.24166732319398
107.22237416923477
107.21729894230027
107.22237416776176
107.24166731904607
107.28980875330004
107.40007160727107
107.64035953075408
108.14024108530742
109.13154730310558
111.00162900612968
114.35100857182378
120.03664570541062
129.172338611336
143.05643708381305
163.01193764506098
190.15603435882824
225.1543592242175
222.15962416515174
187.05306670845232
159.82368786973763
139.80410093620614
125.87416679220256
116.70735785424793
111.00162541042923
107.63993489286248
105.76267280212663
104.7673855701933
104.26540006506883
104.0240501613806
103.91327639649616
103.86490130846306
103.84551058467115
103.84040902058119
103.84551058319055
103.86490130429428
103.91327646868277
104.02405033015009
104.26539963679926
104.76738586897713
105.76267413674746
107.63993456539205
111.00162966874174
116.70735293424698
125.87417124834707
139.80408899221902
159.82369115497704
187.0531010001365
222.1596239485594
220.48937737535863
185.3223805556547
158.045152980656
137.9894223003105
124.03348206999486
114.84886860329287
109.13154337690025
105.76267414069989
103.88118236546603
102.88352199006599
102.3802671449919
102.1382692314504
102.02717960957848
101.97865831191879
101.95920591116943
101.95408758884244
101.95920590968406
101.97865830773698
102.02717968197605
102.13826940068373
102.3802667156036
102.88352228958331
103.88118370316754
105.76267381248627
109.13154764405972
114.84886367347596
124.03348653460644
137.98941033437796
158.04515627174604
185.32241490698283
220.48937715845344
219.605036917501
184.40598668028542
157.10327475959917
137.02818587618592
123.05822019098382
113.86392522305827
108.1402365764273
104.76738529242434
102.88352036820683
101.88451218587676
101.3805271747247
101.13815157051944
101.02687538946643
100.9782666108635
100.95877688832259
100.9536483534323
100.95877688683424
100.97826660667384
101.02687546198933
101.1381517400247
101.38052674468825
101.88451248581333
102.88352170764603
104.76738496379325
108.14024084846582
113.86392028787421
123.0582246601785
137.02817389845762
157.10327805381417
184.4060210633128
219.60503670043673
219.15964565923707
183.94442432718938
156.62879866245578
136.54384348680378
122.56667805776075
113.36737078197984
107.6403553201654
104.26539936214671
102.38026509591415
101.38052674800102
100.87614082959
100.6335549492159
100.52217343008348
100.47351457465622
100.45400323081883
100.44886873526906
100.45400322932883
100.473514570462
100.5221735026776
100.6335551188732
100.87614039919488
101.38052704816634
102.38026643628791
104.26539903329217
107.64035959476729
113.36736584400114
122.56668252931732
136.54383150304133
156.62880195825906
183.94445872624465
219.15964544209618
218.94582521033757
183.72282697553962
156.4009629496183
136.31121345300468
122.33052385987372
113.12874177909389
107.4000672525661
104.02404991193363
102.13826763654836
101.13815159924859
100.6335554052402
100.39085763270053
100.27941923282378
100.23073294729997
100.21120961170135
100.20607178451554
100.2112096102104
100.23073294310323
100.27941930545664
100.39085780243926
100.63355497465548
101.13815189953294
102.13826897740212
104.02404958296498
107.40007152845293
113.12873683972735
122.33052833259086
136.31120146629922
156.40096624619125
183.72286138232013
218.9458249931616
218.8478365295037
183.62126805442546
156.29652717578992
136.2045537007459
122.22221736390242
113.01926880049206
107.289804427572
103.91327608013593
102.0271779473426
101.02687535104457
100.52217381899392
100.27941916557639
100.16795141466105
100.11925076708974
100.09972107271692
100.09458146499148
100.09972107122547
100.11925076289165
100.16795148731393
100.27941933535682
100.52217338831335
101.02687565138814
102.02717928843158
103.91327575111164
107.2898087040736
113.01926386046755
122.22222183716391
136.2045417126701
156.2965304727187
183.6213024647606
218.84783631231224
218.80510961703118
183.57698170581807
156.2509787442851
136.1580240239408
122.17495597950183
112.97148473646479
107.24166300496705
103.86490092770748
101.97865658498213
100.97826650775966
100.47351489886454
100.23073281526527
100.11925070229111
100.07054292661726
100.05101003728248
100.04586952813754
100.05101003579072
100.0705429224184
100.11925077495383
100.2307329850657
100.47351446813802
100.97826680813117
101.97865792618072
103.86490059865733
107.24166728174812
112.97147979614375
122.17496045300611
136.15801203525803
156.25098204137043
183.5770161177091
218.80510939983333
218.78800633189826
183.5592532409015
156.2327423512242
136.13939073963772
122.15602489653249
112.9523393556696
107.2223698600067
103.8455102130658
101.95920419336232
100.95877679442115
100.45400356425854
100.21120948888162
100.09972101713923
100.05101004650881
100.03147570991668
100.02633478979857
100.0314757084248
100.05101004230967
100.09972108980622
100.21120965869085
100.45400313351202
100.95877709480462
101.95920553460729
103.84550988400477
107.22237413690387
112.95233441522643
122.15602937013591
136.1393787507087
156.23274564837268
183.55928765341758
218.7880061146981
218.78351055096087
183.55459296526587
156.22794810233063
136.13449147066194
122.15104651792579
112.94730378368207
107.21729464013924
103.84040865610834
101.9540858781778
100.95364826670288
100.44886907589432
100.20607166887991
100.09458141660127
100.04586954455381
100.02633479698886
100.02119375970867
100.02633479549694
100.04586954035446
100.09458148926946
100.20607183869161
100.44886864514226
100.95364856708959
101.95408721943537
103.84040832704424
107.21729891706771
112.94729884320614
122.15105099155562
136.13447948166765
156.22795139949594
183.55462737794667
218.78351033376018
218.78800633509908
183.55925324421926
156.232742354637
136.1393907431248
122.15602490007534
112.95233935925266
107.22236986361746
103.84551021669486
101.95920419700298
100.95877679806878
100.45400356791023
100.21120949253547
100.09972102079423
100.0510100501645
100.03147571357265
100.02633479345464
100.03147571208063
100.0510100459653
100.09972109346127
100.21120966234474
100.45400313716372
100.95877709845212
101.95920553824779
103.84550988763368
107.22237414051463
112.95233441880941
122.15602937367876
136.1393787541959
156.2327456517856
183.55928765673545
218.78800611789887
218.80510962519065
183.5769817142756
156.25097875298394
136.15802403282763
122.17495598852912
112.9714847455928
107.2416630141639
103.86490093694961
101.97865659425264
100.97826651704725
100.4735149081618
100.2307328245679
100.11925071159658
100.07054293592424
100.05101004659001
100.04586953744521
100.05101004509821
100.07054293172523
100.1192507842593
100.23073299436845
100.47351447743526
100.97826681741856
101.978657935451
103.86490060789927
107.24166729094489
112.97147980527168
122.17496046203338
136.15801204414484
156.25098205006924
183.57701612616654
218.80510940799277
218.84783654845475
183.62126807406753
156.29652719598948
136.2045537213771
122.22221738485395
113.01926882167109
107.28980444890558
103.91327610156998
102.02717796883888
101.0268753725778
100.52217384054798
100.27941918714188
100.16795143623243
100.11925078866395
100.09972109429235
100.09458148656721
100.09972109280083
100.11925078446575
100.1679515088853
100.27941935692218
100.52217340986739
101.02687567292116
102.02717930992762
103.9132757725454
107.2898087254071
113.01926388164654
122.2222218581154
136.20454173330106
156.29653049291795
183.62130248440252
218.84783633126312
218.9458252566201
183.72282702350637
156.40096299893813
136.31121350336642
122.33052391100303
113.1287418307639
107.40006730459969
104.02404996420074
102.13826768895875
101.13815165174273
100.63355545778118
100.39085768526658
100.27941928540258
100.23073299988494
100.21120966428899
100.2060718371039
100.21120966279796
100.23073299568819
100.27941935803527
100.39085785500518
100.63355502719628
101.13815195202687
102.13826902981228
104.02404963523189
107.40007158048638
113.12873689139725
122.33052838372004
136.31120151666062
156.40096629551084
183.72286143028668
218.9458250394439
219.159645934134
183.94442461207444
156.62879895533194
136.54384378580028
122.56667836123717
113.3673710885864
107.64035562885833
104.26539967216597
102.3802654067374
101.38052705928942
100.87614114113514
100.63355526089661
100.5221737418325
100.47351488643787
100.45400354261461
100.4488690470687
100.4540035411246
100.47351488224356
100.52217381442655
100.6335554305538
100.87614071073992
101.38052735945446
102.38026674711102
104.26539934331132
107.64035990346022
113.36736615060767
122.5666828327936
136.54383180203783
156.62880225113503
183.94445901112928
219.15964571699288
219.6050367612523
184.40598651836598
157.10327459315616
137.0281857062916
123.05822001857531
113.86392504890321
108.14023640111564
104.76738511638307
102.88352019172682
101.88451200914503
101.3805269978553
101.13815139357799
101.02687521248893
100.97826643386895
100.95877671132067
100.95364817642839
100.95877670983235
100.97826642967927
101.02687528501181
101.13815156308313
101.38052656781868
101.88451230908153
102.88352153116594
104.76738478775192
108.1402406731542
113.86392011371906
123.05822448777018
137.02817372856336
157.10327788737115
184.40602090139333
219.605036544188
220.48937840796606
185.3223816256558
158.04515408031824
137.98942342243464
124.03348320833162
114.84886975277087
109.13154453366364
105.7626753019963
103.88118352944734
102.88352315556203
102.38026831130293
102.13827039817987
102.02718077651325
101.97865947894906
101.95920707824038
101.95408875592442
101.95920707675504
101.97865947476734
102.0271808489109
102.1382705674134
102.38026788191468
102.8835234550794
103.88118486714882
105.7626749737827
109.131548800823
114.84886482295401
124.0334876729433
137.98941145650232
158.04515737140824
185.32241597698402
220.48937819106106
222.15962358888774
187.05306611134446
159.82368725614526
139.8041003101798
125.87416615724523
116.70735721318893
111.0016247654068
107.63993424539257
105.76267215321893
104.7673849204814
104.26539941492821
104.02404951102191
103.9132757460315
103.86490065794949
103.84550993413708
103.84040837004163
103.8455099326567
103.86490065378098
103.91327581821828
104.02404967979157
104.2653989866588
104.76738521926535
105.7626734878397
107.63993391792208
111.00162902371935
116.70735229318791
125.87417061338975
139.80408836619273
159.82369054138505
187.0531004030286
222.15962337229553
225.15436391546015
190.15600481049748
163.01193913415608
143.0564538482196
129.17233909714574
120.03665558136558
114.35100933130897
111.00163435288631
109.13155100467631
108.14024582449589
107.64036499695706
107.40007648055126
107.28981372347312
107.24167236554432
107.2223792117223
107.21730398482475
107.22237921024958
107.24167236139661
107.28981379532016
107.40007664856495
107.64036457053027
108.14024612205631
109.13155233409401
111.00163402667559
114.35101357436113
120.03665067843417
129.1723435384242
143.0564419430204
163.01194240899233
190.15603899562302
225.15436369944916
230.2430629217897
195.42828980798706
168.42843645216797
148.5807724583374
134.77325618108065
125.6892302722364
120.03664545027272
116.707356576452
114.84886599809025
113.86392421631565
113.36737019495501
113.12874074326872
113.019267830655
112.97148383016389
112.95233844029693
112.94730286125969
112.95233843883574
112.97148382604779
113.01926790197963
113.12874091010559
113.36736977142314
113.86392451193159
114.84886731914344
116.7073562522729
120.03664966830954
125.68922539749578
134.77326059758738
148.5807606181722
168.42843970946222
195.42832381264842
230.2430627067991
238.42687981905274
203.9069691992945
177.13795066489593
157.46209723258863
143.77596061933335
134.77325552802415
129.17232840306943
125.87416486764506
124.03347882987907
123.05821853324815
122.56667681515988
122.33052217294816
122.22221574222125
122.17495442063893
122.15602332868602
122.15104494310663
122.15602332724144
122.1749544165688
122.22221581277742
122.33052233803679
122.56667639596606
123.05821882591968
124.03348013813743
125.87416454658268
129.172332582165
134.7732506974649
143.77596499670062
157.46208549575223
177.13795389417356
203.907002914601
238.42687960575034
250.87400324762146
216.8020460961657
190.38265997260956
170.9660092543921
157.46209635110185
148.58077092485124
143.05644240739014
139.80409814141174
137.9894182073169
137.02818334226268
136.54384136149784
136.31121088978432
136.2045512017176
136.1580215867273
136.13938829356567
136.13448901772406
136.13938829214402
136.15802158272086
136.20455127119266
136.31121105239137
136.54384094850607
137.02818363068675
137.98941949695194
139.80409782489684
143.05644652893042
148.58076615997837
157.4621006698617
170.96599767304227
190.38266315953447
216.80207937254383
250.87400303694866
268.77570123960703
235.34737330656648
209.42907197654478
190.38265887502425
177.1379486882093
168.42843382655641
163.01192678969696
159.82368399848662
158.04514783545687
157.10327114131206
156.6287954439467
156.40095930196466
156.29652359090827
156.25097521987564
156.23273881812602
156.227944562509
156.23273881673478
156.25097521595424
156.29652365892778
156.40095946120533
156.62879503942057
157.10327142389463
158.0451490992851
159.82368368828602
163.01193083044333
168.4284291543524
177.1379529237846
190.38264751528095
209.42907510286932
235.34740595308162
268.77570103279066
293.13879640148525
260.58572233746884
235.34743857129104
216.80211155137994
203.90703467618968
195.42835523174892
190.156061135794
187.0531314940793
185.322444221143
184.4060518949701
183.94448996284112
183.7228922092514
183.62133335631557
183.57704706962605
183.5593185975145
183.55465831567332
183.5593185961623
183.5770470658138
183.62133342245673
183.72289236412178
183.9444895693606
184.40605216988448
185.32244545088795
187.05313119223118
190.1560650687158
195.4283506837144
203.90703879975615
216.8021004910318
235.34744161548272
260.58575412832346
293.13879619999886
324.56353138322487
293.1387378063435
268.77570406949076
250.87400510065973
238.42688088427857
230.24306340268262
225.15435528257896
222.15962350163392
220.48937552109837
219.60503649997156
219.1596456184354
218.9458247674892
218.8478361459071
218.805109290314
218.7880059970912
218.78351020986494
218.78800599578668
218.8051092866362
218.84783620972163
218.9458249169208
219.159645238753
219.60503676526244
220.4893767078693
222.1596232103292
225.15435907846762
230.2430590129345
238.42688486452903
250.873994424359
268.77570700807365
293.13876849502384
324.56353118869146

