# vtk DataFile Version 2.0
Unstructured Grid Example
ASCII
DATASET UNSTRUCTURED_GRID

POINTS 961 float
0.100000001 0.00499999989 0
0.0966666639 0.00499999989 0
0.0933333337 0.00499999989 0
0.0900000036 0.00499999989 0
0.086666666 0.00499999989 0
0.0833333358 0.00499999989 0
0.0799999982 0.00499999989 0
0.0766666681 0.00499999989 0
0.0733333305 0.00499999989 0
0.0700000003 0.00499999989 0
0.0666666701 0.00499999989 0
0.0633333325 0.00499999989 0
0.0599999987 0.00499999989 0
0.0566666685 0.00499999989 0
0.0533333346 0.00499999989 0
0.0500000007 0.00499999989 0
0.0466666669 0.00499999989 0
0.043333333 0.00499999989 0
0.0399999991 0.00499999989 0
0.0366666652 0.00499999989 0
0.0333333351 0.00499999989 0
0.0299999993 0.00499999989 0
0.0266666673 0.00499999989 0
0.0233333334 0.00499999989 0
0.0199999996 0.00499999989 0
0.0166666675 0.00499999989 0
0.0133333337 0.00499999989 0
0.00999999978 0.00499999989 0
0.00666666683 0.00499999989 0
0.00333333341 0.00499999989 0
0 0.00499999989 0
0.100000001 0.00166666671 0
0.0966666639 0.00166666671 0
0.0933333337 0.00166666671 0
0.0900000036 0.00166666671 0
0.086666666 0.00166666671 0
0.0833333358 0.00166666671 0
0.0799999982 0.00166666671 0
0.0766666681 0.00166666671 0
0.0733333305 0.00166666671 0
0.0700000003 0.00166666671 0
0.0666666701 0.00166666671 0
0.0633333325 0.00166666671 0
0.0599999987 0.00166666671 0
0.0566666685 0.00166666671 0
0.0533333346 0.00166666671 0
0.0500000007 0.00166666671 0
0.0466666669 0.00166666671 0
0.043333333 0.00166666671 0
0.0399999991 0.00166666671 0
0.0366666652 0.00166666671 0
0.0333333351 0.00166666671 0
0.0299999993 0.00166666671 0
0.0266666673 0.00166666671 0
0.0233333334 0.00166666671 0
0.0199999996 0.00166666671 0
0.0166666675 0.00166666671 0
0.0133333337 0.00166666671 0
0.00999999978 0.00166666671 0
0.00666666683 0.00166666671 0
0.00333333341 0.00166666671 0
0 0.00166666671 0
0.100000001 -0.00166666671 0
0.0966666639 -0.00166666671 0
0.0933333337 -0.00166666671 0
0.0900000036 -0.00166666671 0
0.086666666 -0.00166666671 0
0.0833333358 -0.00166666671 0
0.0799999982 -0.00166666671 0
0.0766666681 -0.00166666671 0
0.0733333305 -0.00166666671 0
0.0700000003 -0.00166666671 0
0.0666666701 -0.00166666671 0
0.0633333325 -0.00166666671 0
0.0599999987 -0.00166666671 0
0.0566666685 -0.00166666671 0
0.0533333346 -0.00166666671 0
0.0500000007 -0.00166666671 0
0.0466666669 -0.00166666671 0
0.043333333 -0.00166666671 0
0.0399999991 -0.00166666671 0
0.0366666652 -0.00166666671 0
0.0333333351 -0.00166666671 0
0.0299999993 -0.00166666671 0
0.0266666673 -0.00166666671 0
0.0233333334 -0.00166666671 0
0.0199999996 -0.00166666671 0
0.0166666675 -0.00166666671 0
0.0133333337 -0.00166666671 0
0.00999999978 -0.00166666671 0
0.00666666683 -0.00166666671 0
0.00333333341 -0.00166666671 0
0 -0.00166666671 0
0.100000001 -0.00499999989 0
0.0966666639 -0.00499999989 0
0.0933333337 -0.00499999989 0
0.0900000036 -0.00499999989 0
0.086666666 -0.00499999989 0
0.0833333358 -0.00499999989 0
0.0799999982 -0.00499999989 0
0.0766666681 -0.00499999989 0
0.0733333305 -0.00499999989 0
0.0700000003 -0.00499999989 0
0.0666666701 -0.00499999989 0
0.0633333325 -0.00499999989 0
0.0599999987 -0.00499999989 0
0.0566666685 -0.00499999989 0
0.0533333346 -0.00499999989 0
0.0500000007 -0.00499999989 0
0.0466666669 -0.00499999989 0
0.043333333 -0.00499999989 0
0.0399999991 -0.00499999989 0
0.0366666652 -0.00499999989 0
0.0333333351 -0.00499999989 0
0.0299999993 -0.00499999989 0
0.0266666673 -0.00499999989 0
0.0233333334 -0.00499999989 0
0.0199999996 -0.00499999989 0
0.0166666675 -0.00499999989 0
0.0133333337 -0.00499999989 0
0.00999999978 -0.00499999989 0
0.00666666683 -0.00499999989 0
0.00333333341 -0.00499999989 0
0 -0.00499999989 0
0.100000001 -0.00833333377 0
0.0966666639 -0.00833333377 0
0.0933333337 -0.00833333377 0
0.0900000036 -0.00833333377 0
0.086666666 -0.00833333377 0
0.0833333358 -0.00833333377 0
0.0799999982 -0.00833333377 0
0.0766666681 -0.00833333377 0
0.0733333305 -0.00833333377 0
0.0700000003 -0.00833333377 0
0.0666666701 -0.00833333377 0
0.0633333325 -0.00833333377 0
0.0599999987 -0.00833333377 0
0.0566666685 -0.00833333377 0
0.0533333346 -0.00833333377 0
0.0500000007 -0.00833333377 0
0.0466666669 -0.00833333377 0
0.043333333 -0.00833333377 0
0.0399999991 -0.00833333377 0
0.0366666652 -0.00833333377 0
0.0333333351 -0.00833333377 0
0.0299999993 -0.00833333377 0
0.0266666673 -0.00833333377 0
0.0233333334 -0.00833333377 0
0.0199999996 -0.00833333377 0
0.0166666675 -0.00833333377 0
0.0133333337 -0.00833333377 0
0.00999999978 -0.00833333377 0
0.00666666683 -0.00833333377 0
0.00333333341 -0.00833333377 0
0 -0.00833333377 0
0.100000001 -0.0116666667 0
0.0966666639 -0.0116666667 0
0.0933333337 -0.0116666667 0
0.0900000036 -0.0116666667 0
0.086666666 -0.0116666667 0
0.0833333358 -0.0116666667 0
0.0799999982 -0.0116666667 0
0.0766666681 -0.0116666667 0
0.0733333305 -0.0116666667 0
0.0700000003 -0.0116666667 0
0.0666666701 -0.0116666667 0
0.0633333325 -0.0116666667 0
0.0599999987 -0.0116666667 0
0.0566666685 -0.0116666667 0
0.0533333346 -0.0116666667 0
0.0500000007 -0.0116666667 0
0.0466666669 -0.0116666667 0
0.043333333 -0.0116666667 0
0.0399999991 -0.0116666667 0
0.0366666652 -0.0116666667 0
0.0333333351 -0.0116666667 0
0.0299999993 -0.0116666667 0
0.0266666673 -0.0116666667 0
0.0233333334 -0.0116666667 0
0.0199999996 -0.0116666667 0
0.0166666675 -0.0116666667 0
0.0133333337 -0.0116666667 0
0.00999999978 -0.0116666667 0
0.00666666683 -0.0116666667 0
0.00333333341 -0.0116666667 0
0 -0.0116666667 0
0.100000001 -0.0149999997 0
0.0966666639 -0.0149999997 0
0.0933333337 -0.0149999997 0
0.0900000036 -0.0149999997 0
0.086666666 -0.0149999997 0
0.0833333358 -0.0149999997 0
0.0799999982 -0.0149999997 0
0.0766666681 -0.0149999997 0
0.0733333305 -0.0149999997 0
0.0700000003 -0.0149999997 0
0.0666666701 -0.0149999997 0
0.0633333325 -0.0149999997 0
0.0599999987 -0.0149999997 0
0.0566666685 -0.0149999997 0
0.0533333346 -0.0149999997 0
0.0500000007 -0.0149999997 0
0.0466666669 -0.0149999997 0
0.043333333 -0.0149999997 0
0.0399999991 -0.0149999997 0
0.0366666652 -0.0149999997 0
0.0333333351 -0.0149999997 0
0.0299999993 -0.0149999997 0
0.0266666673 -0.0149999997 0
0.0233333334 -0.0149999997 0
0.0199999996 -0.0149999997 0
0.0166666675 -0.0149999997 0
0.0133333337 -0.0149999997 0
0.00999999978 -0.0149999997 0
0.00666666683 -0.0149999997 0
0.00333333341 -0.0149999997 0
0 -0.0149999997 0
0.100000001 -0.0183333326 0
0.0966666639 -0.0183333326 0
0.0933333337 -0.0183333326 0
0.0900000036 -0.0183333326 0
0.086666666 -0.0183333326 0
0.0833333358 -0.0183333326 0
0.0799999982 -0.0183333326 0
0.0766666681 -0.0183333326 0
0.0733333305 -0.0183333326 0
0.0700000003 -0.0183333326 0
0.0666666701 -0.0183333326 0
0.0633333325 -0.0183333326 0
0.0599999987 -0.0183333326 0
0.0566666685 -0.0183333326 0
0.0533333346 -0.0183333326 0
0.0500000007 -0.0183333326 0
0.0466666669 -0.0183333326 0
0.043333333 -0.0183333326 0
0.0399999991 -0.0183333326 0
0.0366666652 -0.0183333326 0
0.0333333351 -0.0183333326 0
0.0299999993 -0.0183333326 0
0.0266666673 -0.0183333326 0
0.0233333334 -0.0183333326 0
0.0199999996 -0.0183333326 0
0.0166666675 -0.0183333326 0
0.0133333337 -0.0183333326 0
0.00999999978 -0.0183333326 0
0.00666666683 -0.0183333326 0
0.00333333341 -0.0183333326 0
0 -0.0183333326 0
0.100000001 -0.0216666665 0
0.0966666639 -0.0216666665 0
0.0933333337 -0.0216666665 0
0.0900000036 -0.0216666665 0
0.086666666 -0.0216666665 0
0.0833333358 -0.0216666665 0
0.0799999982 -0.0216666665 0
0.0766666681 -0.0216666665 0
0.0733333305 -0.0216666665 0
0.0700000003 -0.0216666665 0
0.0666666701 -0.0216666665 0
0.0633333325 -0.0216666665 0
0.0599999987 -0.0216666665 0
0.0566666685 -0.0216666665 0
0.0533333346 -0.0216666665 0
0.0500000007 -0.0216666665 0
0.0466666669 -0.0216666665 0
0.043333333 -0.0216666665 0
0.0399999991 -0.0216666665 0
0.0366666652 -0.0216666665 0
0.0333333351 -0.0216666665 0
0.0299999993 -0.0216666665 0
0.0266666673 -0.0216666665 0
0.0233333334 -0.0216666665 0
0.0199999996 -0.0216666665 0
0.0166666675 -0.0216666665 0
0.0133333337 -0.0216666665 0
0.00999999978 -0.0216666665 0
0.00666666683 -0.0216666665 0
0.00333333341 -0.0216666665 0
0 -0.0216666665 0
0.100000001 -0.0250000004 0
0.0966666639 -0.0250000004 0
0.0933333337 -0.0250000004 0
0.0900000036 -0.0250000004 0
0.086666666 -0.0250000004 0
0.0833333358 -0.0250000004 0
0.0799999982 -0.0250000004 0
0.0766666681 -0.0250000004 0
0.0733333305 -0.0250000004 0
0.0700000003 -0.0250000004 0
0.0666666701 -0.0250000004 0
0.0633333325 -0.0250000004 0
0.0599999987 -0.0250000004 0
0.0566666685 -0.0250000004 0
0.0533333346 -0.0250000004 0
0.0500000007 -0.0250000004 0
0.0466666669 -0.0250000004 0
0.043333333 -0.0250000004 0
0.0399999991 -0.0250000004 0
0.0366666652 -0.0250000004 0
0.0333333351 -0.0250000004 0
0.0299999993 -0.0250000004 0
0.0266666673 -0.0250000004 0
0.0233333334 -0.0250000004 0
0.0199999996 -0.0250000004 0
0.0166666675 -0.0250000004 0
0.0133333337 -0.0250000004 0
0.00999999978 -0.0250000004 0
0.00666666683 -0.0250000004 0
0.00333333341 -0.0250000004 0
0 -0.0250000004 0
0.100000001 -0.0283333343 0
0.0966666639 -0.0283333343 0
0.0933333337 -0.0283333343 0
0.0900000036 -0.0283333343 0
0.086666666 -0.0283333343 0
0.0833333358 -0.0283333343 0
0.0799999982 -0.0283333343 0
0.0766666681 -0.0283333343 0
0.0733333305 -0.0283333343 0
0.0700000003 -0.0283333343 0
0.0666666701 -0.0283333343 0
0.0633333325 -0.0283333343 0
0.0599999987 -0.0283333343 0
0.0566666685 -0.0283333343 0
0.0533333346 -0.0283333343 0
0.0500000007 -0.0283333343 0
0.0466666669 -0.0283333343 0
0.043333333 -0.0283333343 0
0.0399999991 -0.0283333343 0
0.0366666652 -0.0283333343 0
0.0333333351 -0.0283333343 0
0.0299999993 -0.0283333343 0
0.0266666673 -0.0283333343 0
0.0233333334 -0.0283333343 0
0.0199999996 -0.0283333343 0
0.0166666675 -0.0283333343 0
0.0133333337 -0.0283333343 0
0.00999999978 -0.0283333343 0
0.00666666683 -0.0283333343 0
0.00333333341 -0.0283333343 0
0 -0.0283333343 0
0.100000001 -0.0316666663 0
[...]
POINT_DATA 961
SCALARS Temp float 1
LOOKUP_TABLE default
292.1342190508953
260.3286479985988
237.2281240679646
221.68676720332144
212.01292011545618
206.4370418386838
203.4538742107921
201.96720506680694
201.27416414120708
200.97056758276003
200.84500361271125
200.79574876716438
200.77734766170602
200.7707895398303
200.7686047529323
200.7680965003199
200.76860475278298
200.77078953933668
200.77734767274555
200.79574879905286
200.8450035162673
200.97056766556798
201.27416459707194
201.96720495016828
203.45387627990823
206.43703910855479
212.0129230361514
221.68675847518188
237.22812674978806
260.3286780819355
292.13421877065514
260.32868026385415
227.40831371086776
203.49703798360036
187.40925572813563
177.39452972473194
171.62166999707102
168.53281676819017
166.9933206559882
166.27557695798734
165.96112509894306
165.8310575524772
165.78003071981715
165.76096566902342
165.75417025506144
165.75190621796122
165.75137949817312
165.7519062178064
165.75417025455002
165.76096568046168
165.7800307528542
165.83105745256887
165.96112518471622
166.27557743012113
166.99332053518935
168.532818910705
171.6216671703263
177.39453274845883
187.40924669273858
203.49704075961228
227.40834484930548
260.32867997383374
237.22812838006996
203.49700822598678
178.99397877715217
162.50543500841536
152.23920413075518
146.3200038786471
143.15203791279214
141.57267870729783
140.83613995495458
140.51336010990096
140.37980910415487
140.32740068807965
140.30781398063417
140.30083076681004
140.29850360119082
140.29796210718095
140.29850360103174
140.3008307662845
140.30781399238674
140.3274007220146
140.37980900155642
140.51336019795778
140.83614043950757
141.57267858332818
143.15204011044267
146.32000097979048
152.23920723072865
162.5054257469113
178.99398162203985
203.49704013309267
237.22812808302257
221.6867588029488
187.40921225410332
162.50542144530465
145.74369106491164
135.30463630947327
129.28394104316257
126.06054460182884
124.4529527029658
123.70295439766159
123.37414410635066
123.23804290797625
123.18461223828025
123.1646355858614
123.15751062864719
123.15513540697955
123.15458260206458
123.15513540681722
123.15751062811078
123.1646355978497
123.18461227288233
123.23804280339786
123.37414419606979
123.7029548911477
124.45295257671997
126.06054683829151
129.28393809397812
135.30463946205245
145.74368164858248
162.50542433695756
187.40924468048334
221.68675850124765
212.01292345942798
177.394498060464
152.23920298337958
135.30464907661707
124.75517534775994
118.66888706682269
115.40921256931031
113.78289376281798
113.02384363299302
112.69092108229336
112.55305688579566
112.49891003381735
112.47865666983496
112.47142990700343
112.46901979873063
112.46845872422934
112.46901979856591
112.47142990645915
112.47865668199137
112.49891006888872
112.5530567798394
112.69092117315346
113.02384413251997
113.78289363503674
115.40921483132334
118.66888408485936
124.75517853411745
135.30463956179977
152.2392059044748
177.39453081172238
212.01292315489115
206.43704054684224
171.62163333141652
146.31999778275488
129.28394886137235
118.66888198449291
112.54310689959414
109.26126868169844
107.62332741559534
106.85856720608231
106.52300750573777
106.38399412045219
106.32937294033516
106.30893347751105
106.30163724730652
106.29920302706644
106.29863618843407
106.29920302689992
106.3016372467568
106.30893348978114
106.32937297571937
106.38399401359055
106.52300759733528
106.85856770944548
107.62332728684201
109.26127095942911
112.5431038977183
118.66888519103316
129.2839392883465
146.32000072104606
171.6216662710412
206.4370402407152
203.4538766100691
168.53278381580506
143.1520357219907
126.06055643979914
115.40921150821409
109.26127274884549
105.96678791736886
104.32209665612015
103.55395853552311
103.21680926381005
103.07709012403318
103.02217225171502
103.00161430057581
102.99427309115062
102.99182302490435
102.99125236089846
102.99182302473662
102.99427309059736
103.00161431291886
103.02217228729609
103.07709001661019
103.21680935585614
103.55395904117267
104.32209652678945
105.96679020413754
109.26126973567945
115.4092147259889
126.06054683476144
143.1520386696179
168.53281685686778
203.45387630311987
201.9672055453991
166.99328566028655
141.5726744690404
124.45296248095217
113.78289059561254
107.62332937167406
104.32209452824658
102.67373091111551
101.90371768278932
101.56566763168506
101.42554017605134
101.37044709941215
101.34981776946621
101.3424489454434
101.33998898602627
101.33941590723998
101.33998898585786
101.3424489448879
101.34981778185359
101.37044713511031
101.42554006830021
101.56566772398769
101.9037181897189
102.67373078146282
104.32209681987979
107.62332635252304
113.78289381922674
124.45295285948983
141.5726774213934
166.99331875225357
201.9672052380561
201.27416503283766
166.2755423645118
140.83613615230047
123.70296463068495
113.02384091560243
106.85856962027478
103.55395686368988
101.9037181423229
101.13272683778885
100.79419644156005
100.65384632185547
100.59865554894225
100.57798553860728
100.57060064441374
100.56813482016871
100.56756029240117
100.56813481999994
100.57060064385708
100.57798555102005
100.59865558470638
100.65384621392336
100.79419653400117
101.13272734539213
101.9037180125014
103.5539591577792
106.85856659814999
113.02384414205929
123.70295500133362
140.83613910689257
166.2755754803792
201.2741647253194
200.97056791920883
165.96108991919056
140.51335571556183
123.3741537418624
112.69091775513792
106.52300930767139
103.2168069749391
101.5656674737015
100.79419582289759
100.45542401942623
100.31495932395333
100.2597170738956
100.23902512110864
100.2316313616052
100.22916223663532
100.22858688266534
100.22916223646635
100.23163136104787
100.23902513353536
100.25971710969478
100.31495921592693
100.45542411193773
100.79419633083484
101.56566734379675
103.21680927019462
106.52300628415746
112.69092098289542
123.37414410895008
140.5133586711512
165.961123045604
200.97056761161764
200.84500384864114
165.8310222638998
140.37980460223525
123.23805243599709
112.55305344762995
106.38399581138985
103.07708772270121
101.42553990575418
100.6538455905411
100.31495921139592
100.17443879533087
100.11917088473466
100.0984677216411
100.09106932381353
100.08859843494845
100.08802263332996
100.08859843477934
100.09106932325588
100.09846773407499
100.11917092055144
100.17443868725806
100.31495930394125
100.65384609863469
101.42553977581076
103.07709001847934
106.38399278726376
112.5530566759492
123.2380428015678
140.37980755824387
165.83105539470637
200.8450035410215
200.79574910087524
165.7799955306802
140.32739628992755
123.18462187294625
112.49890670285437
106.329374739793
103.02216995910506
101.37044693837996
100.59865492701124
100.25971707090386
100.11917099437066
100.0638909640666
100.04318237016123
100.03578166909881
100.03330988484271
100.03273385271912
100.03330988467363
100.03578166854092
100.0431823825986
100.06389099989178
100.11917088627611
100.2597171634646
100.59865543517417
101.37044680841956
103.02217225510499
106.3293717154114
112.49890993140343
123.1846122379047
140.32739924610343
165.78002866322194
200.7957487932452
200.77734798080104
165.7609304640475
140.30780956683296
123.16464520490572
112.47865332271198
106.30893526082257
103.00161199158255
101.34981759208218
100.57798490026661
100.2390251017278
100.09846781489023
100.04318235376073
100.02247126303118
100.01506947610531
100.01259726014877
100.01202111526997
100.0125972599796
100.01506947554735
100.02247127547017
100.04318238958979
100.09846770678601
100.23902519429507
100.5779854084586
101.3498174621146
103.00161428767179
106.30893223633971
112.47865655135037
123.16463556962907
140.30781252307202
165.76096359724212
200.77734767316718
200.7707898494171
165.75413503998382
140.30082634285043
123.15752023744962
112.47142654937295
106.30163902006875
102.99427077148744
101.34244875738203
100.57059999536173
100.23163133151483
100.0910694063509
100.03578164197918
100.01506946538532
100.00766719442275
100.00519478175647
100.00461858476967
100.0051947815873
100.00766719386463
100.01506947782494
100.03578167780967
100.09106929824259
100.2316314240848
100.5706005035654
101.34244862741161
102.99427306761078
106.30163599554763
112.47142977804445
123.15751060208689
140.30082929911242
165.75416817341247
200.77078954178202
200.76860506368163
165.75187100400424
140.29849917845698
123.15514501707406
112.4690164423694
106.29920480113022
102.9918207065305
101.33998879927049
100.56813417242078
100.22916220785581
100.08859851879899
100.03330985903516
100.01259725074132
100.00519478306929
100.00272228889132
100.00214607004308
100.00272228872217
100.00519478251118
100.01259726318104
100.03330989486618
100.08859841068909
100.22916230042682
100.56813468062863
101.33998866929899
102.99182300266604
106.29920177659574
112.46901967105225
123.15513538168193
140.2985021347267
165.75190413751127
200.76860475604613
200.7680968117889
165.7513442849425
140.29795768521112
123.15459221294856
112.4684553686597
106.29863796330231
102.99125004332957
101.33941572129532
100.56755964546521
100.22858685470025
100.08802271799586
100.03273382772679
100.01202110667806
100.00461858689816
100.00214607085879
100.00156984610138
100.00214607068966
100.00461858633997
100.01202111911785
100.03273386355798
100.08802260988561
100.22858694727148
100.56756015367415
101.3394155913235
102.99125233946806
106.29863493876458
112.46845859734522
123.1545825775495
140.2979606414827
165.7513774184679
200.76809650415345
200.7686050640838
165.75187100442108
140.29849917888544
123.15514501751139
112.46901644281313
106.29920480157844
102.99182070698171
101.33998879972357
100.56813417287495
100.22916220831058
100.08859851925409
100.03330985949039
100.01259725119658
100.00519478352466
100.00272228934674
100.00214607049855
100.00272228917746
100.00519478296654
100.01259726363641
100.03330989532148
100.08859841114422
100.22916230088146
100.56813468108271
101.33998866975195
102.99182300311728
106.29920177704396
112.46901967149603
123.15513538211928
140.29850213515516
165.75190413792825
200.7686047564484
200.77078985059794
165.75413504120743
140.30082634410792
123.15752023873269
112.47142655067451
106.30163902138308
102.99427077280995
101.34244875870976
100.57059999669242
100.23163133284714
100.091069407684
100.03578164331267
100.01506946671908
100.0076671957566
100.00519478309037
100.0046185861035
100.00519478292114
100.00766719519844
100.0150694791587
100.03578167914334
100.09106929957572
100.23163142541695
100.57060050489584
101.34244862873913
102.99427306893323
106.3016359968619
112.47142977934598
123.15751060336991
140.30082930036983
165.75416817463602
200.77078954296277
200.77734798414212
165.7609304675094
140.3078095703899
123.16464520853386
112.47865332639077
106.30893526453566
103.00161199531759
101.34981759583052
100.5779849040226
100.23902510548798
100.09846781865245
100.0431823575241
100.022471266795
100.01506947986928
100.01259726391277
100.01202111903392
100.01259726374354
100.01506947931121
100.02247127923393
100.04318239335298
100.09846771054823
100.23902519805505
100.57798541221437
101.34981746586274
103.0016142914067
106.3089322400527
112.47865655502915
123.16463557325702
140.30781252662874
165.76096360070378
200.77734767650827
200.79574911085982
165.77999554102428
140.3273963005527
123.18462188378
112.49890671383476
106.32937475087111
103.02216997024459
101.37044694955604
100.5986549382079
100.25971708211137
100.11917100558362
100.06389097528223
100.04318238137807
100.035781680316
100.03330989606008
100.03273386393649
100.03330989589092
100.03578167975812
100.0431823938152
100.06389101110724
100.1191708974889
100.25971717467186
100.59865544637061
101.37044681959537
103.02217226624434
106.32937172648948
112.4989099423837
123.18461224873822
140.32739925672823
165.78002867356597
200.79574880322954
200.84500392006274
165.83102233788617
140.37980467821154
123.2380525134364
112.5530535260861
106.38399589051302
103.07708780223705
101.42553998553097
100.65384567045028
100.314959291374
100.17443887534272
100.11917096476228
100.09846780167568
100.0910694038509
100.08859851498683
100.08802271336853
100.08859851481778
100.09106940329308
100.09846781410938
100.1191710005789
100.17443876726975
100.31495938391907
100.6538461785437
101.42553985558733
103.07709009801518
106.38399286638686
112.55305675440526
123.23804287900705
140.37980763422001
165.83105546869234
200.84500361244298
200.97056787284518
165.9610898711654
140.51335566625454
123.37415369161931
112.69091770425042
106.52300925636575
103.21680692337787
101.56566742199338
100.79419577110978
100.45542396759764
100.31495927210509
100.2597170220383
100.23902506924733
100.23163130974216
100.22916218477167
100.2285868308015
100.22916218460264
100.23163130918479
100.23902508167394
100.25971705783738
100.31495916407853
100.45542406010905
100.79419627904694
101.56566729208858
103.21680921863343
106.5230062328518
112.690920932008
123.37414405870695
140.51335862184388
165.96112299757874
200.97056756525396
201.27416542698543
166.27554277272756
140.8361365712584
123.70296505737278
113.02384134752026
106.85857005551559
103.55395730091277
101.90371858065605
101.13272727670706
100.79419688076837
100.65384676119972
100.59865598834676
100.57798597803706
100.57060108385357
100.56813525961232
100.56756073184576
100.56813525944365
100.570601083297
100.57798599044995
100.59865602411094
100.65384665326766
100.79419697320945
101.13272778431022
101.90371845083457
103.55395959500194
106.85856703339077
113.0238445739771
123.70295542802151
140.83613952585068
166.27557588859509
201.27416511946728
201.96720529510088
166.9932854010739
141.572674203059
124.4529622101373
113.78289032155813
107.62332909558425
104.32209425095812
102.67373063316504
101.90371740449537
101.56566735322326
101.4255398975121
101.37044682083908
101.34981749087916
101.34244866685079
101.33998870743171
101.33941562864497
101.33998870726346
101.34244866629558
101.34981750326668
101.37044685653746
101.42553978976115
101.56566744552603
101.90371791142486
102.6737305035123
104.32209654259135
107.62332607643312
113.78289354517226
124.452952588675
141.5726771554122
166.9933184930409
201.96720498775804
203.4538790407925
168.53278633275923
143.15203830372982
126.06055906715272
115.40921416560431
109.26127542471879
105.96679060387459
104.32209934835099
103.55396123064568
103.21681196030652
103.0770928211454
103.02217494908862
103.00161699805469
102.9942757886698
102.9918257224379
102.99125505843551
102.99182572227033
102.99427578811672
103.00161701039792
103.02217498466986
103.07709271372256
103.21681205235255
103.55396173629528
104.32209921902013
105.96679289064309
109.26127241155268
115.4092173833791
126.06054946211508
143.15204125135696
168.53281937382204
203.45387873384303
206.4370417315661
171.62163455801613
146.3199990405096
129.28395014077705
118.668883277924
112.5431082014937
109.26126998836737
107.62332872477458
106.85856851649972
106.5230088167293
106.38399543169514
106.32937425168232
106.30893478889912
106.30163855870998
106.2992043384753
106.29863749984429
106.29920433830895
106.30163855816048
106.30893480116941
106.32937428706659
106.38399532483356
106.52300890832694
106.85856901986273
107.62332859602097
109.2612722660977
112.5431051996177
118.66888648446407
129.2839405677512
146.32000197880075
171.62166749764077
206.43704142543902
212.01291948603048
177.39449394684533
152.2391987658857
135.30464478735587
124.75517101233685
118.66888270376306
115.40920819083293
113.7828893763085
113.02383924256392
112.69091669006644
112.55305249279068
112.4989056404933
112.47865227638643
112.47142551350886
112.46901540522022
112.46845433071518
112.4690154050555
112.47142551296476
112.47865228854306
112.49890567556484
112.5530523868345
112.69091678092651
113.02383974209076
113.78288924852689
115.40921045284574
118.66887972179943
124.75517419869419
135.3046352725384
152.23920168698078
177.3945266981037
212.01291918149354
221.6867657831669
187.4092194800018
162.50542885190652
145.74369859516835
135.30464391832953
129.28394869843308
126.06055228260237
124.45296039681294
123.7029620977829
123.37415180930161
123.2380506121319
123.18461994292187
123.16464329068944
123.15751833354334
123.15514311189895
123.1545903069894
123.15514311173672
123.15751833300705
123.16464330267783
123.18461997752382
123.23805050755344
123.37415189902067
123.70296259126854
124.45296027056666
126.06055451906455
129.2839457492482
135.30464707090826
145.74368917883902
162.5054317435591
187.40925190638137
221.68676548146567
237.22812154831
203.49700115421115
178.99397152971247
162.50542764157152
152.2391966886417
146.3199963925141
143.15203040273045
141.57267118510956
140.8361324270157
140.5133525793993
140.3798015725754
140.32739315607026
140.30780644846166
140.30082323457862
140.29849606893922
140.29795457492472
140.29849606878028
140.30082323405298
140.30780646021427
140.32739319000524
140.37980146997677
140.513352667456
140.8361329115684
141.57267106113952
143.15203260038035
146.3199934936569
152.23919978861474
162.50541838006697
178.99397437459976
203.497033061317
237.2281212512625
260.3287054466144
227.40833977684483
203.49706469300307
187.40928287218668
177.3945571407008
171.62169757068753
168.532844426695
166.99334835708765
166.2756046790837
165.96115282886197
165.83108528607067
165.78005845486203
165.76099340461408
165.75419799084796
165.75193395381302
165.75140723404039
165.7519339536585
165.75419799033654
165.76099341605246
165.7800584878991
165.83108518616234
165.96115291463482
166.27560515121726
166.99334823628863
168.53284656920954
171.62169474394253
177.39456016442725
187.40927383678934
203.49706746901435
227.40837091528135
260.32870515659374
292.134218886782
260.32864782876914
237.22812389404942
221.68676702671888
212.01291993722904
206.4370416595531
203.4538740311978
201.96720488699268
201.27416396129541
200.97056740280797
200.84500343274374
200.79574858719116
200.77734748173066
200.7707893598542
200.7686045729559
200.7680963203436
200.7686045728068
200.77078935936083
200.77734749277022
200.79574861907946
200.84500333629958
200.97056748561593
201.27416441716016
201.96720477035367
203.45387610031383
206.43703892942375
212.012922857924
221.68675829857906
237.22812657587266
260.32867791210555
292.13421860654154

