# vtk DataFile Version 2.0
Unstructured Grid Example
ASCII
DATASET UNSTRUCTURED_GRID

POINTS 961 float
0.100000001 0.00499999989 0
0.0966666639 0.00499999989 0
0.0933333337 0.00499999989 0
0.0900000036 0.00499999989 0
0.086666666 0.00499999989 0
0.0833333358 0.00499999989 0
0.0799999982 0.00499999989 0
0.0766666681 0.00499999989 0
0.0733333305 0.00499999989 0
0.0700000003 0.00499999989 0
0.0666666701 0.00499999989 0
0.0633333325 0.00499999989 0
0.0599999987 0.00499999989 0
0.0566666685 0.00499999989 0
0.0533333346 0.00499999989 0
0.0500000007 0.00499999989 0
0.0466666669 0.00499999989 0
0.043333333 0.00499999989 0
0.0399999991 0.00499999989 0
0.0366666652 0.00499999989 0
0.0333333351 0.00499999989 0
0.0299999993 0.00499999989 0
0.0266666673 0.00499999989 0
0.0233333334 0.00499999989 0
0.0199999996 0.00499999989 0
0.0166666675 0.00499999989 0
0.0133333337 0.00499999989 0
0.00999999978 0.00499999989 0
0.00666666683 0.00499999989 0
0.00333333341 0.00499999989 0
0 0.00499999989 0
0.100000001 0.00166666671 0
0.0966666639 0.00166666671 0
0.0933333337 0.00166666671 0
0.0900000036 0.00166666671 0
0.086666666 0.00166666671 0
0.0833333358 0.00166666671 0
0.0799999982 0.00166666671 0
0.0766666681 0.00166666671 0
0.0733333305 0.00166666671 0
0.0700000003 0.00166666671 0
0.0666666701 0.00166666671 0
0.0633333325 0.00166666671 0
0.0599999987 0.00166666671 0
0.0566666685 0.00166666671 0
0.0533333346 0.00166666671 0
0.0500000007 0.00166666671 0
0.0466666669 0.00166666671 0
0.043333333 0.00166666671 0
0.0399999991 0.00166666671 0
0.0366666652 0.00166666671 0
0.0333333351 0.00166666671 0
0.0299999993 0.00166666671 0
0.0266666673 0.00166666671 0
0.0233333334 0.00166666671 0
0.0199999996 0.00166666671 0
0.0166666675 0.00166666671 0
0.0133333337 0.00166666671 0
0.00999999978 0.00166666671 0
0.00666666683 0.00166666671 0
0.00333333341 0.00166666671 0
0 0.00166666671 0
0.100000001 -0.00166666671 0
0.0966666639 -0.00166666671 0
0.0933333337 -0.00166666671 0
0.0900000036 -0.00166666671 0
0.086666666 -0.00166666671 0
0.0833333358 -0.00166666671 0
0.0799999982 -0.00166666671 0
0.0766666681 -0.00166666671 0
0.0733333305 -0.00166666671 0
0.0700000003 -0.00166666671 0
0.0666666701 -0.00166666671 0
0.0633333325 -0.00166666671 0
0.0599999987 -0.00166666671 0
0.0566666685 -0.00166666671 0
0.0533333346 -0.00166666671 0
0.0500000007 -0.00166666671 0
0.0466666669 -0.00166666671 0
0.043333333 -0.00166666671 0
0.0399999991 -0.00166666671 0
0.0366666652 -0.00166666671 0
0.0333333351 -0.00166666671 0
0.0299999993 -0.00166666671 0
0.0266666673 -0.00166666671 0
0.0233333334 -0.00166666671 0
0.0199999996 -0.00166666671 0
0.0166666675 -0.00166666671 0
0.0133333337 -0.00166666671 0
0.00999999978 -0.00166666671 0
0.00666666683 -0.00166666671 0
0.00333333341 -0.00166666671 0
0 -0.00166666671 0
0.100000001 -0.00499999989 0
0.0966666639 -0.00499999989 0
0.0933333337 -0.00499999989 0
0.0900000036 -0.00499999989 0
0.086666666 -0.00499999989 0
0.0833333358 -0.00499999989 0
0.0799999982 -0.00499999989 0
0.0766666681 -0.00499999989 0
0.0733333305 -0.00499999989 0
0.0700000003 -0.00499999989 0
0.0666666701 -0.00499999989 0
0.0633333325 -0.00499999989 0
0.0599999987 -0.00499999989 0
0.0566666685 -0.00499999989 0
0.0533333346 -0.00499999989 0
0.0500000007 -0.00499999989 0
0.0466666669 -0.00499999989 0
0.043333333 -0.00499999989 0
0.0399999991 -0.00499999989 0
0.0366666652 -0.00499999989 0
0.0333333351 -0.00499999989 0
0.0299999993 -0.00499999989 0
0.0266666673 -0.00499999989 0
0.0233333334 -0.00499999989 0
0.0199999996 -0.00499999989 0
0.0166666675 -0.00499999989 0
0.0133333337 -0.00499999989 0
0.00999999978 -0.00499999989 0
0.00666666683 -0.00499999989 0
0.00333333341 -0.00499999989 0
0 -0.00499999989 0
0.100000001 -0.00833333377 0
0.0966666639 -0.00833333377 0
0.0933333337 -0.00833333377 0
0.0900000036 -0.00833333377 0
0.086666666 -0.00833333377 0
0.0833333358 -0.00833333377 0
0.0799999982 -0.00833333377 0
0.0766666681 -0.00833333377 0
0.0733333305 -0.00833333377 0
0.0700000003 -0.00833333377 0
0.0666666701 -0.00833333377 0
0.0633333325 -0.00833333377 0
0.0599999987 -0.00833333377 0
0.0566666685 -0.00833333377 0
0.0533333346 -0.00833333377 0
0.0500000007 -0.00833333377 0
0.0466666669 -0.00833333377 0
0.043333333 -0.00833333377 0
0.0399999991 -0.00833333377 0
0.0366666652 -0.00833333377 0
0.0333333351 -0.00833333377 0
0.0299999993 -0.00833333377 0
0.0266666673 -0.00833333377 0
0.0233333334 -0.00833333377 0
0.0199999996 -0.00833333377 0
0.0166666675 -0.00833333377 0
0.0133333337 -0.00833333377 0
0.00999999978 -0.00833333377 0
0.00666666683 -0.00833333377 0
0.00333333341 -0.00833333377 0
0 -0.00833333377 0
0.100000001 -0.0116666667 0
0.0966666639 -0.0116666667 0
0.0933333337 -0.0116666667 0
0.0900000036 -0.0116666667 0
0.086666666 -0.0116666667 0
0.0833333358 -0.0116666667 0
0.0799999982 -0.0116666667 0
0.0766666681 -0.0116666667 0
0.0733333305 -0.0116666667 0
0.0700000003 -0.0116666667 0
0.0666666701 -0.0116666667 0
0.0633333325 -0.0116666667 0
0.0599999987 -0.0116666667 0
0.0566666685 -0.0116666667 0
0.0533333346 -0.0116666667 0
0.0500000007 -0.0116666667 0
0.0466666669 -0.0116666667 0
0.043333333 -0.0116666667 0
0.0399999991 -0.0116666667 0
0.0366666652 -0.0116666667 0
0.0333333351 -0.0116666667 0
0.0299999993 -0.0116666667 0
0.0266666673 -0.0116666667 0
0.0233333334 -0.0116666667 0
0.0199999996 -0.0116666667 0
0.0166666675 -0.0116666667 0
0.0133333337 -0.0116666667 0
0.00999999978 -0.0116666667 0
0.00666666683 -0.0116666667 0
0.00333333341 -0.0116666667 0
0 -0.0116666667 0
0.100000001 -0.0149999997 0
0.0966666639 -0.0149999997 0
0.0933333337 -0.0149999997 0
0.0900000036 -0.0149999997 0
0.086666666 -0.0149999997 0
0.0833333358 -0.0149999997 0
0.0799999982 -0.0149999997 0
0.0766666681 -0.0149999997 0
0.0733333305 -0.0149999997 0
0.0700000003 -0.0149999997 0
0.0666666701 -0.0149999997 0
0.0633333325 -0.0149999997 0
0.0599999987 -0.0149999997 0
0.0566666685 -0.0149999997 0
0.0533333346 -0.0149999997 0
0.0500000007 -0.0149999997 0
0.0466666669 -0.0149999997 0
0.043333333 -0.0149999997 0
0.0399999991 -0.0149999997 0
0.0366666652 -0.0149999997 0
0.0333333351 -0.0149999997 0
0.0299999993 -0.0149999997 0
0.0266666673 -0.0149999997 0
0.0233333334 -0.0149999997 0
0.0199999996 -0.0149999997 0
0.0166666675 -0.0149999997 0
0.0133333337 -0.0149999997 0
0.00999999978 -0.0149999997 0
0.00666666683 -0.0149999997 0
0.00333333341 -0.0149999997 0
0 -0.0149999997 0
0.100000001 -0.0183333326 0
0.0966666639 -0.0183333326 0
0.0933333337 -0.0183333326 0
0.0900000036 -0.0183333326 0
0.086666666 -0.0183333326 0
0.0833333358 -0.0183333326 0
0.0799999982 -0.0183333326 0
0.0766666681 -0.0183333326 0
0.0733333305 -0.0183333326 0
0.0700000003 -0.0183333326 0
0.0666666701 -0.0183333326 0
0.0633333325 -0.0183333326 0
0.0599999987 -0.0183333326 0
0.0566666685 -0.0183333326 0
0.0533333346 -0.0183333326 0
0.0500000007 -0.0183333326 0
0.0466666669 -0.0183333326 0
0.043333333 -0.0183333326 0
0.0399999991 -0.0183333326 0
0.0366666652 -0.0183333326 0
0.0333333351 -0.0183333326 0
0.0299999993 -0.0183333326 0
0.0266666673 -0.0183333326 0
0.0233333334 -0.0183333326 0
0.0199999996 -0.0183333326 0
0.0166666675 -0.0183333326 0
0.0133333337 -0.0183333326 0
0.00999999978 -0.0183333326 0
0.00666666683 -0.0183333326 0
0.00333333341 -0.0183333326 0
0 -0.0183333326 0
0.100000001 -0.0216666665 0
0.0966666639 -0.0216666665 0
0.0933333337 -0.0216666665 0
0.0900000036 -0.0216666665 0
0.086666666 -0.0216666665 0
0.0833333358 -0.0216666665 0
0.0799999982 -0.0216666665 0
0.0766666681 -0.0216666665 0
0.0733333305 -0.0216666665 0
0.0700000003 -0.0216666665 0
0.0666666701 -0.0216666665 0
0.0633333325 -0.0216666665 0
0.0599999987 -0.0216666665 0
0.0566666685 -0.0216666665 0
0.0533333346 -0.0216666665 0
0.0500000007 -0.0216666665 0
0.0466666669 -0.0216666665 0
0.043333333 -0.0216666665 0
0.0399999991 -0.0216666665 0
0.0366666652 -0.0216666665 0
0.0333333351 -0.0216666665 0
0.0299999993 -0.0216666665 0
0.0266666673 -0.0216666665 0
0.0233333334 -0.0216666665 0
0.0199999996 -0.0216666665 0
0.0166666675 -0.0216666665 0
0.0133333337 -0.0216666665 0
0.00999999978 -0.0216666665 0
0.00666666683 -0.0216666665 0
0.00333333341 -0.0216666665 0
0 -0.0216666665 0
0.100000001 -0.0250000004 0
0.0966666639 -0.0250000004 0
0.0933333337 -0.0250000004 0
0.0900000036 -0.0250000004 0
0.086666666 -0.0250000004 0
0.0833333358 -0.0250000004 0
0.0799999982 -0.0250000004 0
0.0766666681 -0.0250000004 0
0.0733333305 -0.0250000004 0
0.0700000003 -0.0250000004 0
0.0666666701 -0.0250000004 0
0.0633333325 -0.0250000004 0
0.0599999987 -0.0250000004 0
0.0566666685 -0.0250000004 0
0.0533333346 -0.0250000004 0
0.0500000007 -0.0250000004 0
0.0466666669 -0.0250000004 0
0.043333333 -0.0250000004 0
0.0399999991 -0.0250000004 0
0.0366666652 -0.0250000004 0
0.0333333351 -0.0250000004 0
0.0299999993 -0.0250000004 0
0.0266666673 -0.0250000004 0
0.0233333334 -0.0250000004 0
0.0199999996 -0.0250000004 0
0.0166666675 -0.0250000004 0
0.0133333337 -0.0250000004 0
0.00999999978 -0.0250000004 0
0.00666666683 -0.0250000004 0
0.00333333341 -0.0250000004 0
0 -0.0250000004 0
0.100000001 -0.0283333343 0
0.0966666639 -0.0283333343 0
0.0933333337 -0.0283333343 0
0.0900000036 -0.0283333343 0
0.086666666 -0.0283333343 0
0.0833333358 -0.0283333343 0
0.0799999982 -0.0283333343 0
0.0766666681 -0.0283333343 0
0.0733333305 -0.0283333343 0
0.0700000003 -0.0283333343 0
0.0666666701 -0.0283333343 0
0.0633333325 -0.0283333343 0
0.0599999987 -0.0283333343 0
0.0566666685 -0.0283333343 0
0.0533333346 -0.0283333343 0
0.0500000007 -0.0283333343 0
0.0466666669 -0.0283333343 0
0.043333333 -0.0283333343 0
0.0399999991 -0.0283333343 0
0.0366666652 -0.0283333343 0
0.0333333351 -0.0283333343 0
0.0299999993 -0.0283333343 0
0.0266666673 -0.0283333343 0
0.0233333334 -0.0283333343 0
0.0199999996 -0.0283333343 0
0.0166666675 -0.0283333343 0
0.0133333337 -0.0283333343 0
0.00999999978 -0.0283333343 0
0.00666666683 -0.0283333343 0
0.00333333341 -0.0283333343 0
0 -0.0283333343 0
0.100000001 -0.0316666663 0
[...]
POINT_DATA 961
SCALARS Temp float 1
LOOKUP_TABLE default
330.27073917337333
298.9407584932779
274.4262467939472
256.190804081634
243.31544975830428
234.69331619875152
229.21738050253526
225.91735328789633
224.02831676064534
222.99974959265026
222.46614130423436
222.20192523458527
222.07693843266213
222.0206967134953
221.99753902730615
221.9913403627006
221.9975390255057
222.02069670854203
222.07693851514802
222.2019254215017
222.4661408417065
222.99974990574862
224.02831811890394
225.91735295724902
229.21738463067166
234.69331151531173
243.31545390908917
256.1907931185222
274.4262497685669
298.94078923024307
330.27073899330406
298.9407913439692
266.481997892963
241.0837762122748
222.19052427762625
208.85032111628834
199.91658257740292
194.24251823506953
190.82293805822138
188.86537115923844
187.7994349145594
187.24641028746092
186.9725650684762
186.84301596637442
186.78471810784114
186.7607126409823
186.7542868524777
186.76071263911567
186.78471810270673
186.84301605187324
186.97256526220883
187.24640980808874
187.79943523904163
188.8653725668027
190.82293771557673
194.24252251265426
199.91657772458723
208.85032541699942
222.19051291886515
241.0837792941612
266.48202973766087
298.9407911574402
274.426251438033
241.08374606184603
214.992762641972
195.58291947660965
181.87685447007692
172.69722454833942
166.86634841303515
163.35183402249416
161.3396546392142
160.24382610065012
159.67520881820394
159.39359951654274
159.26035682460193
159.2003877519407
159.17569082021436
159.16907937901058
159.17569081829387
159.20038774665846
159.26035691254418
159.39359971578006
159.67520832527507
160.24382643425642
161.3396560861343
163.3518336702843
166.86635280907757
172.69721956163033
181.87685888892509
195.5829078067778
214.99276580802103
241.08377877433696
274.42625124650465
256.19079333115343
222.19047748631786
195.5829029921965
175.78693353695638
161.8066089300252
152.44201821371988
146.49272506286164
142.90620993112722
140.8524170730177
139.73369851109211
139.15307967779856
138.86546291716286
138.7293471615613
138.66807144565578
138.6428314536929
138.63607379166348
138.64283145173007
138.66807144025756
138.72934725140823
138.86546312066818
139.15307917440532
139.73369885170288
140.85241854998947
142.90620957162471
146.49272954853114
152.4420131260609
161.80661343756776
175.7869216342611
195.5829062210783
222.19051084534428
256.19079313596086
243.3154542528312
208.8502896316121
181.87685414452335
161.80662564534566
147.63079693606736
138.13379661531746
132.09931982960498
128.46073274695777
126.3766700408389
125.24119908689937
124.65174075384427
124.35967044849818
124.22141082088723
124.15915389374467
124.13350382949318
124.12663536893244
124.13350382749827
124.15915388825904
124.2214109121593
124.35967065517545
124.65174024271633
125.24119943265265
126.37667153972784
128.4607323821467
132.099324379903
138.1337914551824
147.63080150695495
161.8066135769406
181.87685741796915
208.8503234480242
243.31545405509934
234.69331360730118
199.91654342270678
172.69721663201756
152.4420273430176
138.13378876417576
128.54665933294814
122.45386656220484
118.77940490061704
116.67434476271023
115.52716855627054
114.93148710685651
114.63625712798583
114.49646461573408
114.43350081263148
114.40755337854935
114.40060423894828
114.40755337653094
114.4335008070824
114.49646470802836
114.63625733692047
114.93148659026033
115.52716890563056
116.6743462768502
118.77940453212062
122.45387115687323
128.54665412331235
138.13379337806165
152.4420151626103
172.69721993546602
199.91657754612228
234.6933134079071
229.21738485847024
194.2424860703637
166.86634786481014
146.49274181113478
132.09931960523767
122.4538743110631
116.32310234665577
112.62510703103945
110.50616425047066
109.35118440521464
108.75131802175501
108.45394423731966
108.3131023260264
108.24965038402546
108.22349603851133
108.21649049563904
108.2234960364763
108.24965037843232
108.31310241902312
108.45394444779122
108.75131750146338
109.35118475698957
110.50616577473023
112.6251066601045
116.32310697031517
122.45386906927523
132.09932424685684
146.4927295588403
166.86635118743018
194.24252038927295
229.21738465804847
225.91735384797093
190.822901834061
163.3518294140583
142.90622259797573
128.46072832041574
118.77940843599211
112.62510276092576
108.91240712916503
106.78471655945003
105.62477362216296
105.02221969946513
104.72345537878876
104.581925916752
104.51815101834188
104.49185861028242
104.4848152320026
104.49185860823644
104.51815101271937
104.58192601021105
104.72345559026108
105.02221917678743
105.62477397548108
106.78471809011197
108.91240675669195
112.62510740261432
118.77940317434049
128.4607329790359
142.90621030185073
163.35183274831016
190.8229362711286
225.91735364694847
224.02831869990726
188.86533629191592
161.339651489726
140.85243126486267
126.3766671260688
116.67434984272808
110.50616151768575
106.78471811318629
104.6517723333381
103.48881750875712
102.8846152426984
102.58498868699495
102.44302815358782
102.3790485871373
102.35266786316652
102.34560014121826
102.35266786111347
102.37904858149612
102.44302824733795
102.58498889909062
102.88461471854843
103.48881786301676
104.65177386786323
106.78471773978839
110.50616617005197
116.6743445693965
126.37667179460236
140.85241894332984
161.3396548306856
188.86537079683526
224.0283184985527
222.99974988924703
187.79939830537404
160.24382119559323
139.73371093054365
125.24119435355011
115.52717180888615
109.35117982282766
105.62477332409391
103.48881564997406
102.32411584990452
101.71894766257951
101.41880985688613
101.27659065846986
101.21248684834248
101.18605196913643
101.17896922602182
101.18605196707917
101.21248684268997
101.27659075239563
101.41881006935319
101.7189471375612
102.3241162047128
103.4888171867238
105.62477295016565
109.35118448122098
115.52716652901185
125.24119902758785
139.73369859499113
160.24382454023373
187.7994328473628
222.99974968771826
222.46614114499008
187.2463731852428
159.67520342439553
139.1530916084538
124.6517355137247
114.93148985244713
108.75131292337001
105.02221888604451
102.88461286585112
101.7189471451468
101.11323781790168
100.8128100017439
100.67044220441106
100.60626613375335
100.57979941916932
100.57270778721401
100.57979941710946
100.60626612809412
100.67044229843829
100.81281021442264
101.11323729239353
101.71894750026064
102.88461440382441
105.02221851182587
108.75131758500983
114.93148456907682
124.65174019067683
139.1530792655266
159.6752067709614
187.2464077465302
222.46614094337477
222.201925568566
186.97252846721855
159.39359464692208
138.8654753883285
124.35966575194706
114.63626042560131
108.45393969218249
104.72345512271674
102.5849868684112
101.41880989943283
100.81281056251096
100.51222529359798
100.3697757462966
100.30555940794918
100.27907475417747
100.27197807886681
100.27907475211617
100.30555940228622
100.36977584037994
100.51222550639223
100.81281003673838
101.41881025470936
102.58498840702796
104.72345474834619
108.45394435549298
114.63625514044675
124.35967043037267
138.8654630416978
159.39359799444924
186.97256303809604
222.2019253669096
222.07693869456446
186.84297928555654
159.26035187746135
138.729359556038
124.22140604393213
114.49646783335227
108.31309769897034
104.58192557914337
102.44302625289866
101.2765906191665
100.67044268338408
100.3697756643127
100.22728309672216
100.16304528830723
100.13655096076205
100.12945154683844
100.13655095869987
100.16304528264214
100.22728319083518
100.36977587716733
100.67044215747494
101.27659097452576
102.44302779183874
104.58192520469679
108.31310236310236
114.49646254732774
124.22141072306952
138.72934720763016
159.26035522544697
186.84301386098713
222.07693849288938
222.02069690144873
186.78468134817976
159.20038272563724
138.6680837603798
124.15914903460737
114.43350394772627
108.24964567318473
104.51815059688202
102.37904660217008
101.21248672478755
100.60626652844692
100.30555924156144
100.16304520388634
100.09879654318301
100.07229727208937
100.06519644927423
100.07229727002678
100.09879653751678
100.16304529801417
100.30555945444577
100.60626600247089
101.21248708018682
102.37904814126456
104.51815022239931
108.24965033770056
114.43349866129833
124.15915371407158
138.66807141116092
159.20038607383088
186.78471592566623
222.0206966997657
221.99753922604035
186.76067589159007
159.17568580527475
138.64284378049877
124.13349898214805
114.40755652581691
108.22349133967178
104.49185820103615
102.35266589038204
101.18605185786912
100.57979982619327
100.27907460009551
100.13655088865586
100.07229728441239
100.0457957402
100.03869426586157
100.04579573813726
100.07229727874572
100.13655098279024
100.27907481299313
100.5797993001875
101.18605221328596
102.35266742954335
104.49185782653787
108.22349600435093
114.40755123921873
124.13350366174922
138.64283143094198
159.17568915355454
186.76071046992578
221.99753902435424
221.99134057010076
186.75425011182628
159.16907437327842
138.6360861280069
124.12663053115035
114.40060739595782
108.2164858065477
104.48481483259826
102.34559817829012
101.17896912465403
100.5727082041577
100.27197793470248
100.12945148465509
100.06519647152383
100.03869427578873
100.03159261406793
100.03869427372592
100.0651964658569
100.12945157879139
100.27197814760382
100.57270767814367
101.17896948007571
102.34559971746985
104.48481445809561
108.21649047127154
114.40060210931333
124.12663521078865
138.63607377835893
159.1690777215815
186.75428469038985
221.9913403684139
221.99753923037795
186.7606758960864
159.1756858099006
138.64284378522638
124.13349898695245
114.40755653067704
108.22349134457075
104.49185820596102
102.3526658953235
101.18605186282073
100.57979983115081
100.27907460505638
100.13655089361848
100.072297289376
100.04579574516413
100.03869427082573
100.04579574310124
100.07229728370923
100.13655098775287
100.27907481795403
100.57979930514506
101.1860522182374
102.3526674344847
104.49185783146261
108.2234960092499
114.40755124407889
124.13350366655364
138.64283143566956
159.17568915818052
186.76071047442227
221.99753902869176
222.02069691228405
186.78468135941145
159.20038273719138
138.66808377218624
124.15914904660376
114.43350395985986
108.24964568541316
104.51815060917343
102.37904661450155
101.21248673714337
100.60626654081689
100.3055592539393
100.1630452162685
100.09879655556735
100.07229728447464
100.0651964616598
100.072297282412
100.09879654990107
100.1630453103963
100.30555946682374
100.6062660148408
101.21248709254245
102.37904815359576
104.51815023469057
108.24965034992888
114.43349867343188
124.15915372606794
138.6680714229674
159.20038608538485
186.78471593689784
222.02069671060096
222.07693871897774
186.8429793108616
159.26035190348912
138.72935958262883
124.22140607094394
114.49646786066567
108.31309772649097
104.58192560680016
102.44302628064118
101.27659064696059
100.67044271120787
100.36977569215298
100.2272831245711
100.16304531616048
100.13655098861717
100.12945157469409
100.13655098655497
100.16304531049528
100.2272832186841
100.36977590500747
100.6704421852987
101.27659100231968
102.443027819581
104.5819252323534
108.31310239062289
114.49646257464107
124.22141075008126
138.72934723422068
159.26035525147444
186.8430138862919
222.0769385173027
222.2019256263519
186.9725285271116
159.39359470851625
138.86547545124125
124.35966581583935
114.63626049019048
108.45393975724583
104.7234551880888
102.58498693397537
101.41880996511135
100.81281062825458
100.5122253593771
100.36977581209423
100.30555947375592
100.27907481998822
100.27197814467867
100.27907481792681
100.30555946809287
100.36977590617735
100.51222557217125
100.81281010248182
101.41881032038762
102.58498847259195
104.72345481371799
108.45394442055624
114.6362552050359
124.35967049426488
138.8654631046103
159.39359805604317
186.97256309798888
222.20192542469536
222.4661414786165
187.24637353101673
159.67520377994137
139.1530919715376
124.65173588237586
114.93149022503052
108.75131329860785
105.02221926299443
102.88461324385594
101.718947523773
101.11323819687766
100.81281038090847
100.67044258367282
100.60626651306251
100.57979979849955
100.57270816655002
100.57979979643959
100.60626650740318
100.67044267769995
100.81281059358712
101.11323767136943
101.71894787888661
102.8846147818291
105.02221888877564
108.75131796024768
114.9314849416602
124.65174055932793
139.15307962861039
159.67520712650702
187.2464080923038
222.4661412770009
222.9997497034029
187.79939811277006
160.2438209975658
139.73371072834703
125.24119414828743
115.52717160146902
109.35117961396463
105.62477311430479
103.48881543961835
102.32411563921768
101.71894745170773
101.41880964591543
101.27659044744863
101.21248663729675
101.18605175807998
101.17896901496238
101.1860517560226
101.21248663164421
101.27659054137439
101.41880985838247
101.71894692668934
102.32411599402586
103.48881697636801
105.62477274037649
109.35118427235801
115.52716632159466
125.24119882232534
139.73369839279454
160.24382434220624
187.79943265475865
222.99974950187405
224.02831988264128
188.86533751758583
161.33965274967068
140.85243255098254
126.37666843128193
116.67435116122964
110.50616284500654
106.78471944608789
104.65177366960815
103.48881884696719
102.88461658197582
102.58499002683365
102.44302949370868
102.37904992739278
102.3526692034805
102.34560148154847
102.35266920142755
102.37904992175172
102.44302958745894
102.58499023892949
102.88461605782594
103.48881920122689
104.65177520413322
106.78471907269005
110.50616749737264
116.67434588789804
126.37667309981553
140.85242022944993
161.33965609063026
188.86537202250517
224.0283196812868
225.91735320079798
190.82290116341886
163.35182872473126
142.90622189442968
128.46072760654278
118.77940771496924
112.6251020351858
108.91240640046014
106.78471582896884
105.62477289066653
105.0222189674148
104.72345464644964
104.58192518426897
104.51815028579071
104.49185787770206
104.48481449941421
104.49185787565621
104.51815028016851
104.58192527772825
104.72345485792218
105.02221844473733
105.62477324398478
106.78471735963073
108.91240602798705
112.62510667687444
118.7794024533175
128.46073226516296
142.90620959830463
163.3518320589834
190.82293560048657
225.9173529997756
229.21738972805997
194.242491116249
166.86635305044382
146.49274710251498
132.09932497287966
122.4538797310695
116.32310780088227
112.62511250655115
110.50616973859056
109.35118990045302
108.75132352082845
108.45394973836709
108.31310782804455
108.24965588649738
108.22350154117635
108.21649599835693
108.22350153914157
108.2496558809045
108.31310792104154
108.45394994883884
108.75132300053704
109.35119025222795
110.50617126285007
112.625112135616
116.32311242454146
122.45387448928152
132.09932961449866
146.49273485022073
166.86635637306358
194.2425254351581
229.21738952763795
234.69331551084124
199.9165453950621
172.69721865871915
152.44202941064202
138.13379086113483
128.54666144990654
122.45386869212713
118.77940703853085
116.67434690531212
115.52717070149238
114.93148925347501
114.63625927531541
114.49646676340932
114.43350296046674
114.4075555264521
114.40060638686946
114.40755552443377
114.4335029549179
114.49646685570391
114.6362594842501
114.93148873687886
115.52717105085252
116.67434841945202
118.77940667003435
122.4538732867952
128.5466562402705
138.13379547502063
152.44201723023465
172.69722196216765
199.91657951847748
234.69331531144687
243.31544848441507
208.85028365481406
181.87684800347225
161.80661938092376
147.6307905834874
138.13379020285896
132.09931337849878
128.46072627214144
126.37666355218597
125.24119259055735
124.65173425342783
124.35966394601988
124.2214043174121
124.15914738981134
124.13349732536774
124.12662886475498
124.13349732337286
124.15914738432602
124.22140440868434
124.35966415269746
124.65173374229997
125.2411929363106
126.37666505107472
128.46072590733
132.09931792879655
138.1337850427236
147.63079515437474
161.80660731251865
181.8768512769179
208.85031747122613
243.315448286683
256.190802031066
222.19048650019184
195.58291225289162
175.78694298239597
161.80661850691308
152.44202787943777
146.4927347855832
142.90621968859764
140.85242685062727
139.73370829981172
139.1530894723613
138.86547271465935
138.7293569604653
138.66808124520173
138.64284125350642
138.6360835915491
138.64284125154373
138.66808123980374
138.7293570503124
138.8654729181647
139.153088968968
139.73370864042244
140.85242832759863
142.9062193290947
146.4927392712521
152.44202279177821
161.8066230144553
175.78693107970062
195.58291548177317
222.1905198592176
256.19080183587323
274.4262437944208
241.08373814259923
214.99275450645732
195.5829111796359
181.87684605858897
172.69721605975698
166.86633987519232
163.35182545476542
161.33964605425396
160.24381750623505
159.67520021884485
159.39359091471556
159.26034822159755
159.2003791484024
159.1756822164545
159.16907077519124
159.17568221453428
159.20037914312024
159.26034830953998
159.39359111395282
159.67519972591592
160.24381783984123
161.33964750117363
163.3518251025552
166.8663442712342
172.69721107304727
181.87685047743685
195.58289950980375
214.9927576725059
241.08377085509014
274.4262436028921
298.9408170503445
266.48202452576726
241.08380357082393
222.19055217686625
208.85034939802392
199.91661111586455
194.24254693700226
190.82296685895258
188.86540001670141
187.79946380301462
187.24643919205002
186.9725939810823
186.84304488278647
186.78474702597194
186.76074155982252
186.75431577150854
186.7607415579563
186.7847470208376
186.84304496828543
186.97259417481501
187.2464387126778
187.79946412749672
188.8654014242654
190.82296651630773
194.24255121458648
199.9166062630484
208.85035369873435
222.19054081810498
241.0838066527094
266.4820563704638
298.9408168638152
330.2707390753873
298.9407583917782
274.426246689732
256.1908039754318
243.31544965072834
234.69331609027842
229.2173803935092
225.91735317854827
224.02831665111972
222.999749483032
222.46614119457035
222.20192512489976
222.0769383229667
222.02069660379573
221.99753891760489
221.9913402529991
221.99753891580463
222.02069659884256
222.07693840545278
222.2019253118159
222.46614073204236
222.99974979613035
224.02831800937835
225.91735284790047
229.2173845216451
234.69331140683826
243.31545380151275
256.1907930123195
274.42624966435136
298.9407891287431
330.2707388953175

