# vtk DataFile Version 2.0
Unstructured Grid Example
ASCII
DATASET UNSTRUCTURED_GRID

POINTS 961 float
0.100000001 0.00499999989 0
0.0966666639 0.00499999989 0
0.0933333337 0.00499999989 0
0.0900000036 0.00499999989 0
0.086666666 0.00499999989 0
0.0833333358 0.00499999989 0
0.0799999982 0.00499999989 0
0.0766666681 0.00499999989 0
0.0733333305 0.00499999989 0
0.0700000003 0.00499999989 0
0.0666666701 0.00499999989 0
0.0633333325 0.00499999989 0
0.0599999987 0.00499999989 0
0.0566666685 0.00499999989 0
0.0533333346 0.00499999989 0
0.0500000007 0.00499999989 0
0.0466666669 0.00499999989 0
0.043333333 0.00499999989 0
0.0399999991 0.00499999989 0
0.0366666652 0.00499999989 0
0.0333333351 0.00499999989 0
0.0299999993 0.00499999989 0
0.0266666673 0.00499999989 0
0.0233333334 0.00499999989 0
0.0199999996 0.00499999989 0
0.0166666675 0.00499999989 0
0.0133333337 0.00499999989 0
0.00999999978 0.00499999989 0
0.00666666683 0.00499999989 0
0.00333333341 0.00499999989 0
0 0.00499999989 0
0.100000001 0.00166666671 0
0.0966666639 0.00166666671 0
0.0933333337 0.00166666671 0
0.0900000036 0.00166666671 0
0.086666666 0.00166666671 0
0.0833333358 0.00166666671 0
0.0799999982 0.00166666671 0
0.0766666681 0.00166666671 0
0.0733333305 0.00166666671 0
0.0700000003 0.00166666671 0
0.0666666701 0.00166666671 0
0.0633333325 0.00166666671 0
0.0599999987 0.00166666671 0
0.0566666685 0.00166666671 0
0.0533333346 0.00166666671 0
0.0500000007 0.00166666671 0
0.0466666669 0.00166666671 0
0.043333333 0.00166666671 0
0.0399999991 0.00166666671 0
0.0366666652 0.00166666671 0
0.0333333351 0.00166666671 0
0.0299999993 0.00166666671 0
0.0266666673 0.00166666671 0
0.0233333334 0.00166666671 0
0.0199999996 0.00166666671 0
0.0166666675 0.00166666671 0
0.0133333337 0.00166666671 0
0.00999999978 0.00166666671 0
0.00666666683 0.00166666671 0
0.00333333341 0.00166666671 0
0 0.00166666671 0
0.100000001 -0.00166666671 0
0.0966666639 -0.00166666671 0
0.0933333337 -0.00166666671 0
0.0900000036 -0.00166666671 0
0.086666666 -0.00166666671 0
0.0833333358 -0.00166666671 0
0.0799999982 -0.00166666671 0
0.0766666681 -0.00166666671 0
0.0733333305 -0.00166666671 0
0.0700000003 -0.00166666671 0
0.0666666701 -0.00166666671 0
0.0633333325 -0.00166666671 0
0.0599999987 -0.00166666671 0
0.0566666685 -0.00166666671 0
0.0533333346 -0.00166666671 0
0.0500000007 -0.00166666671 0
0.0466666669 -0.00166666671 0
0.043333333 -0.00166666671 0
0.0399999991 -0.00166666671 0
0.0366666652 -0.00166666671 0
0.0333333351 -0.00166666671 0
0.0299999993 -0.00166666671 0
0.0266666673 -0.00166666671 0
0.0233333334 -0.00166666671 0
0.0199999996 -0.00166666671 0
0.0166666675 -0.00166666671 0
0.0133333337 -0.00166666671 0
0.00999999978 -0.00166666671 0
0.00666666683 -0.00166666671 0
0.00333333341 -0.00166666671 0
0 -0.00166666671 0
0.100000001 -0.00499999989 0
0.0966666639 -0.00499999989 0
0.0933333337 -0.00499999989 0
0.0900000036 -0.00499999989 0
0.086666666 -0.00499999989 0
0.0833333358 -0.00499999989 0
0.0799999982 -0.00499999989 0
0.0766666681 -0.00499999989 0
0.0733333305 -0.00499999989 0
0.0700000003 -0.00499999989 0
0.0666666701 -0.00499999989 0
0.0633333325 -0.00499999989 0
0.0599999987 -0.00499999989 0
0.0566666685 -0.00499999989 0
0.0533333346 -0.00499999989 0
0.0500000007 -0.00499999989 0
0.0466666669 -0.00499999989 0
0.043333333 -0.00499999989 0
0.0399999991 -0.00499999989 0
0.0366666652 -0.00499999989 0
0.0333333351 -0.00499999989 0
0.0299999993 -0.00499999989 0
0.0266666673 -0.00499999989 0
0.0233333334 -0.00499999989 0
0.0199999996 -0.00499999989 0
0.0166666675 -0.00499999989 0
0.0133333337 -0.00499999989 0
0.00999999978 -0.00499999989 0
0.00666666683 -0.00499999989 0
0.00333333341 -0.00499999989 0
0 -0.00499999989 0
0.100000001 -0.00833333377 0
0.0966666639 -0.00833333377 0
0.0933333337 -0.00833333377 0
0.0900000036 -0.00833333377 0
0.086666666 -0.00833333377 0
0.0833333358 -0.00833333377 0
0.0799999982 -0.00833333377 0
0.0766666681 -0.00833333377 0
0.0733333305 -0.00833333377 0
0.0700000003 -0.00833333377 0
0.0666666701 -0.00833333377 0
0.0633333325 -0.00833333377 0
0.0599999987 -0.00833333377 0
0.0566666685 -0.00833333377 0
0.0533333346 -0.00833333377 0
0.0500000007 -0.00833333377 0
0.0466666669 -0.00833333377 0
0.043333333 -0.00833333377 0
0.0399999991 -0.00833333377 0
0.0366666652 -0.00833333377 0
0.0333333351 -0.00833333377 0
0.0299999993 -0.00833333377 0
0.0266666673 -0.00833333377 0
0.0233333334 -0.00833333377 0
0.0199999996 -0.00833333377 0
0.0166666675 -0.00833333377 0
0.0133333337 -0.00833333377 0
0.00999999978 -0.00833333377 0
0.00666666683 -0.00833333377 0
0.00333333341 -0.00833333377 0
0 -0.00833333377 0
0.100000001 -0.0116666667 0
0.0966666639 -0.0116666667 0
0.0933333337 -0.0116666667 0
0.0900000036 -0.0116666667 0
0.086666666 -0.0116666667 0
0.0833333358 -0.0116666667 0
0.0799999982 -0.0116666667 0
0.0766666681 -0.0116666667 0
0.0733333305 -0.0116666667 0
0.0700000003 -0.0116666667 0
0.0666666701 -0.0116666667 0
0.0633333325 -0.0116666667 0
0.0599999987 -0.0116666667 0
0.0566666685 -0.0116666667 0
0.0533333346 -0.0116666667 0
0.0500000007 -0.0116666667 0
0.0466666669 -0.0116666667 0
0.043333333 -0.0116666667 0
0.0399999991 -0.0116666667 0
0.0366666652 -0.0116666667 0
0.0333333351 -0.0116666667 0
0.0299999993 -0.0116666667 0
0.0266666673 -0.0116666667 0
0.0233333334 -0.0116666667 0
0.0199999996 -0.0116666667 0
0.0166666675 -0.0116666667 0
0.0133333337 -0.0116666667 0
0.00999999978 -0.0116666667 0
0.00666666683 -0.0116666667 0
0.00333333341 -0.0116666667 0
0 -0.0116666667 0
0.100000001 -0.0149999997 0
0.0966666639 -0.0149999997 0
0.0933333337 -0.0149999997 0
0.0900000036 -0.0149999997 0
0.086666666 -0.0149999997 0
0.0833333358 -0.0149999997 0
0.0799999982 -0.0149999997 0
0.0766666681 -0.0149999997 0
0.0733333305 -0.0149999997 0
0.0700000003 -0.0149999997 0
0.0666666701 -0.0149999997 0
0.0633333325 -0.0149999997 0
0.0599999987 -0.0149999997 0
0.0566666685 -0.0149999997 0
0.0533333346 -0.0149999997 0
0.0500000007 -0.0149999997 0
0.0466666669 -0.0149999997 0
0.043333333 -0.0149999997 0
0.0399999991 -0.0149999997 0
0.0366666652 -0.0149999997 0
0.0333333351 -0.0149999997 0
0.0299999993 -0.0149999997 0
0.0266666673 -0.0149999997 0
0.0233333334 -0.0149999997 0
0.0199999996 -0.0149999997 0
0.0166666675 -0.0149999997 0
0.0133333337 -0.0149999997 0
0.00999999978 -0.0149999997 0
0.00666666683 -0.0149999997 0
0.00333333341 -0.0149999997 0
0 -0.0149999997 0
0.100000001 -0.0183333326 0
0.0966666639 -0.0183333326 0
0.0933333337 -0.0183333326 0
0.0900000036 -0.0183333326 0
0.086666666 -0.0183333326 0
0.0833333358 -0.0183333326 0
0.0799999982 -0.0183333326 0
0.0766666681 -0.0183333326 0
0.0733333305 -0.0183333326 0
0.0700000003 -0.0183333326 0
0.0666666701 -0.0183333326 0
0.0633333325 -0.0183333326 0
0.0599999987 -0.0183333326 0
0.0566666685 -0.0183333326 0
0.0533333346 -0.0183333326 0
0.0500000007 -0.0183333326 0
0.0466666669 -0.0183333326 0
0.043333333 -0.0183333326 0
0.0399999991 -0.0183333326 0
0.0366666652 -0.0183333326 0
0.0333333351 -0.0183333326 0
0.0299999993 -0.0183333326 0
0.0266666673 -0.0183333326 0
0.0233333334 -0.0183333326 0
0.0199999996 -0.0183333326 0
0.0166666675 -0.0183333326 0
0.0133333337 -0.0183333326 0
0.00999999978 -0.0183333326 0
0.00666666683 -0.0183333326 0
0.00333333341 -0.0183333326 0
0 -0.0183333326 0
0.100000001 -0.0216666665 0
0.0966666639 -0.0216666665 0
0.0933333337 -0.0216666665 0
0.0900000036 -0.0216666665 0
0.086666666 -0.0216666665 0
0.0833333358 -0.0216666665 0
0.0799999982 -0.0216666665 0
0.0766666681 -0.0216666665 0
0.0733333305 -0.0216666665 0
0.0700000003 -0.0216666665 0
0.0666666701 -0.0216666665 0
0.0633333325 -0.0216666665 0
0.0599999987 -0.0216666665 0
0.0566666685 -0.0216666665 0
0.0533333346 -0.0216666665 0
0.0500000007 -0.0216666665 0
0.0466666669 -0.0216666665 0
0.043333333 -0.0216666665 0
0.0399999991 -0.0216666665 0
0.0366666652 -0.0216666665 0
0.0333333351 -0.0216666665 0
0.0299999993 -0.0216666665 0
0.0266666673 -0.0216666665 0
0.0233333334 -0.0216666665 0
0.0199999996 -0.0216666665 0
0.0166666675 -0.0216666665 0
0.0133333337 -0.0216666665 0
0.00999999978 -0.0216666665 0
0.00666666683 -0.0216666665 0
0.00333333341 -0.0216666665 0
0 -0.0216666665 0
0.100000001 -0.0250000004 0
0.0966666639 -0.0250000004 0
0.0933333337 -0.0250000004 0
0.0900000036 -0.0250000004 0
0.086666666 -0.0250000004 0
0.0833333358 -0.0250000004 0
0.0799999982 -0.0250000004 0
0.0766666681 -0.0250000004 0
0.0733333305 -0.0250000004 0
0.0700000003 -0.0250000004 0
0.0666666701 -0.0250000004 0
0.0633333325 -0.0250000004 0
0.0599999987 -0.0250000004 0
0.0566666685 -0.0250000004 0
0.0533333346 -0.0250000004 0
0.0500000007 -0.0250000004 0
0.0466666669 -0.0250000004 0
0.043333333 -0.0250000004 0
0.0399999991 -0.0250000004 0
0.0366666652 -0.0250000004 0
0.0333333351 -0.0250000004 0
0.0299999993 -0.0250000004 0
0.0266666673 -0.0250000004 0
0.0233333334 -0.0250000004 0
0.0199999996 -0.0250000004 0
0.0166666675 -0.0250000004 0
0.0133333337 -0.0250000004 0
0.00999999978 -0.0250000004 0
0.00666666683 -0.0250000004 0
0.00333333341 -0.0250000004 0
0 -0.0250000004 0
0.100000001 -0.0283333343 0
0.0966666639 -0.0283333343 0
0.0933333337 -0.0283333343 0
0.0900000036 -0.0283333343 0
0.086666666 -0.0283333343 0
0.0833333358 -0.0283333343 0
0.0799999982 -0.0283333343 0
0.0766666681 -0.0283333343 0
0.0733333305 -0.0283333343 0
0.0700000003 -0.0283333343 0
0.0666666701 -0.0283333343 0
0.0633333325 -0.0283333343 0
0.0599999987 -0.0283333343 0
0.0566666685 -0.0283333343 0
0.0533333346 -0.0283333343 0
0.0500000007 -0.0283333343 0
0.0466666669 -0.0283333343 0
0.043333333 -0.0283333343 0
0.0399999991 -0.0283333343 0
0.0366666652 -0.0283333343 0
0.0333333351 -0.0283333343 0
0.0299999993 -0.0283333343 0
0.0266666673 -0.0283333343 0
0.0233333334 -0.0283333343 0
0.0199999996 -0.0283333343 0
0.0166666675 -0.0283333343 0
0.0133333337 -0.0283333343 0
0.00999999978 -0.0283333343 0
0.00666666683 -0.0283333343 0
0.00333333341 -0.0283333343 0
0 -0.0283333343 0
0.100000001 -0.0316666663 0
[...]
POINT_DATA 961
SCALARS Temp float 1
LOOKUP_TABLE default
284.64128318866693
252.79548160276696
230.1036189907688
215.23141905460034
206.2728828434179
201.30505327499972
198.76020822427978
197.55037109509868
197.0137522959159
196.79045587922383
196.70280323700436
196.67017531695606
196.6586035750018
196.65468358180738
196.6534371465939
196.6531563218349
196.65343714651073
196.65468358152106
196.6586035818079
196.670175337683
196.70280317137468
196.79045593866343
197.01375264185748
197.55037100574748
198.76020995401825
201.3050509062483
206.2728855033254
215.23141085486972
230.1036215990764
252.79551145019065
284.6412828918912
252.7955136350802
219.8411270633668
196.35805533064894
180.9661581030063
171.69372583120784
166.55128893237256
163.91669575796
162.66404026108333
162.1083609094703
161.87710454491258
161.78631631359005
161.75251722793058
161.74052877078552
161.73646717908125
161.73517559627268
161.73488458073373
161.73517559618645
161.7364671787846
161.74052877783706
161.75251724940242
161.7863162456087
161.87710460647446
162.1083612677168
162.66404016855614
163.91669754879356
166.55128648019294
171.6937285844409
180.96614961630127
196.35805802997547
219.84115795061035
252.79551332801063
230.10362320730746
196.35802574805842
172.3077428761133
156.541035777374
147.04054645045818
141.7701781794125
139.0692243421066
137.78460493233993
137.21455867736103
136.977244797936
136.88404804772279
136.84934126717167
136.83702707467123
136.83285390915032
136.8315264976523
136.83122735589404
136.8315264975637
136.83285390884546
136.8370270819152
136.84934128922262
136.88404797792745
136.97724486112014
137.21455904491734
137.78460483741418
139.06922617830082
141.7701756657637
147.04054927174454
156.54102708283122
172.3077456408356
196.35805737900532
230.10362289296697
215.2314112004175
180.96611550205034
156.5410229097956
140.52463061126684
130.87070242721987
125.51327788300195
122.76660584268734
121.45968015288469
120.87947639594918
120.63782429787125
120.54288091550112
120.50750793738372
120.49495193455375
120.49069505446822
120.48934050558024
120.48903516976188
120.48934050548992
120.49069505415729
120.49495194194105
120.50750795986158
120.54288084438247
120.63782436222388
120.87947677012116
121.45968005625852
122.76660771030599
125.51327532720605
130.8707052945201
140.52462177748666
156.54102571786208
180.96614762289266
215.2314108813758
206.27288593672927
171.6936942426344
147.04054514930408
130.87071430589543
121.1213366668096
115.70899334757094
112.9330363530705
111.61159170211488
111.02466811049709
110.780099339953
110.68396307614773
110.64812819940146
110.63540212353038
110.63108557079309
110.62971144793333
110.62940160893204
110.62971144784171
110.63108557047765
110.63540213101918
110.6481282221767
110.68396300411875
110.78009940509703
111.02466848907339
111.61159160435982
112.93303824095811
115.70899076493583
121.12133956290852
130.87070538595756
147.04054798384337
171.69372666041866
206.2728856149102
201.3050522181281
166.55125286998015
141.77017245163287
125.5132853339889
115.70898880772282
110.26453135462467
107.47114271723409
106.14089210906587
105.54981388321517
105.3034069840259
105.20650473381582
105.17036785291411
105.15752864922375
105.15317175951779
105.15178421573842
105.151471259734
105.15178421564572
105.15317175919918
105.15752865678033
105.17036787588509
105.206504661197
105.3034070496731
105.54981426453541
106.14089201060997
107.4711446172854
110.26452875612256
115.70899172050908
125.51327636478132
141.77017530108805
166.5512854536133
201.30505189480894
198.76021029895603
163.91666284582166
139.0692219257012
122.76661669913072
112.93303521953554
107.47114615958846
104.66810747123975
103.33287862549395
102.7394002864405
102.49190813176845
102.39454381980866
102.3582209293782
102.34531064597697
102.34092793300121
102.33953165400338
102.339216646834
102.33953165391
102.34092793268069
102.34531065357659
102.35822095247065
102.39454374683021
102.4919081977158
102.73940066935958
103.33287852663123
104.66810937808654
107.4711435523687
112.9330381412892
122.76660770382756
139.06922478293188
163.91669551507982
198.76020997489405
197.5503715600859
162.66400563844007
137.78460080121891
121.45968928385724
111.6115888068171
106.14089378565555
103.33287684722929
101.99502122460773
101.40024630522045
101.15215368875309
101.05452756689694
101.01809680036834
101.005144359969
101.00074600379304
100.99934433318892
100.99902804418946
100.9993443330952
101.00074600347124
101.00514436759438
101.0180968235317
101.05452749371244
101.15215375486828
101.4002466890117
101.9950211255239
103.33287875761636
106.14089117397471
111.61159173305306
121.45968027570855
137.78460366221444
162.66403834874015
197.55037123568482
197.0137530638066
162.10832658087392
137.21455486547035
120.87948586048508
111.02466554467168
105.54981589521086
102.73939884206101
101.40024664151849
100.80481565193811
100.55641135693965
100.45864581126345
100.42215612472697
100.40918008618014
100.40477276667654
100.40336794218105
100.40305089304063
100.40336794208719
100.40477276635411
100.40918009382008
100.42215614792964
100.45864573796777
100.55641142314315
100.80481603617521
101.40024654232224
102.7394007541726
105.54981328139705
111.02466847299958
120.87947684643476
137.2145577281675
162.10835930953058
197.0137527392622
196.79045622525956
161.877069771213
136.97724053669643
120.63783330861324
110.78009631148066
105.30340853154867
102.49190621960953
101.1521535569385
100.55641088807832
100.30785454961176
100.21001913383509
100.17349911665494
100.16051060626977
100.15609842876114
100.1546918562096
100.15437437950109
100.15469185611563
100.15609842843843
100.16051061391751
100.173499139878
100.21001906048299
100.30785461585896
100.55641127252952
101.15215345768841
102.491908132509
105.30340591677857
110.7800992407241
120.63782429202011
136.97724340011533
161.87710250757192
196.7904559006586
196.70280351366966
161.78628146477575
136.88404371226397
120.54288985209682
110.68395997115523
105.20650620483532
102.3945418301931
101.05452735772646
100.45864526483788
100.21001905633092
100.1121506312603
100.07561587909625
100.06262113997636
100.0582064707791
100.05679898010536
100.05648127529942
100.05679898001132
100.0582064704562
100.06262114762801
100.07561590232926
100.11215055788115
100.21001912259847
100.4586456493858
101.05452725845232
102.39454374343158
105.2065035896615
110.68396290077634
120.54288083447128
136.8840465759714
161.78631420418276
196.7028031890478
196.67017565946202
161.7524824460949
136.84933700156708
120.50751694572736
110.64812516652842
105.17036939690004
102.35821901286063
101.01809666463394
100.42215565181087
100.1734991127689
100.07561595275492
100.03907443320868
100.0260767508276
100.0216608712406
100.02025292341692
100.01993510318621
100.0202529233229
100.0216608709176
100.0260767584811
100.03907445644631
100.07561587936343
100.1734991790454
100.42215603640027
101.01809656534961
102.35822092623714
105.17036678156502
110.64812809629686
120.50750792770503
136.8493398653839
161.75251518664533
196.670175334833
196.65860390772698
161.7404939783814
136.8370227986019
120.49496093243741
110.63539907985836
105.15753018241398
102.34530871851874
101.0051442133114
100.40917960230672
100.16051059143797
100.06262120269024
100.02607673987532
100.01307774011343
100.00866130333085
100.0072531397009
100.00693526408129
100.00725313960687
100.00866130300777
100.0130777477678
100.02607676311506
100.06262112929338
100.16051065771809
100.4091799869128
101.00514411402293
102.34531063194842
105.15752756701791
110.63540200968146
120.49495191426993
136.83702566245807
161.74052671934055
196.6586035830955
196.65468390871646
161.7364323805024
136.8328496268693
120.49070404608815
110.63108252069964
105.15317328626118
102.34092599902627
101.00074585061417
100.40477227626275
100.15609840738993
100.05820652695235
100.02166085374382
100.00866129678589
100.00424461773761
100.0028363579298
100.00251845722687
100.00283635783569
100.0042446174144
100.00866130444058
100.02166087698424
100.05820645355334
100.15609847367156
100.40477266087538
101.00074575132409
102.34092791247542
105.15317067084295
110.63108545054203
120.49069502787002
136.832852490739
161.73646512160076
196.65468358408415
196.65343747418856
161.7351407983563
136.83152221609427
120.48934949796102
110.62970839858822
105.15178574324837
102.33952972078838
100.999344180779
100.40336745253548
100.15469183561025
100.05679903705165
100.02025290669262
100.0072531339287
100.00283635870261
100.00142805986384
100.00111014883672
100.0014280597698
100.00283635837948
100.00725314158336
100.02025292993325
100.05679896365179
100.15469190189239
100.40336783715031
100.99934408148833
102.3395316342442
105.15178312782277
110.62971132843694
120.4893404797263
136.83152507996832
161.73517353949933
196.653437149556
196.6531566498293
161.7348497832209
136.8312230747602
120.48904416258102
110.62939856002639
105.15147278769045
102.33921471406582
100.99902789222966
100.40305040384561
100.15437435935355
100.05648133269797
100.01993508691415
100.00693525876146
100.00251845845217
100.00111014928923
100.0007922355066
100.00111014919521
100.00251845812892
100.00693526641612
100.01993511015488
100.05648125929797
100.15437442563584
100.40305078846093
100.99902779293876
102.33921662752319
105.15147017226312
110.62940148987653
120.48903514434251
136.8312259386354
161.73488252437414
196.65315632519685
196.65343747441648
161.73514079859248
136.83152221633705
120.48934949820874
110.62970839883957
105.15178574350219
102.33952972104385
100.99934418103553
100.40336745279257
100.15469183586765
100.05679903730919
100.0202529069502
100.00725313418636
100.00283635896032
100.0014280601216
100.00111014909452
100.00142806002744
100.00283635863718
100.00725314184103
100.02025293019092
100.0567989639094
100.15469190214966
100.40336783740729
100.99934408174471
102.33953163449974
105.15178312807662
110.62971132868833
120.48934047997408
136.8315250802111
161.7351735397357
196.653437149784
196.6546839094116
161.73643238122267
136.83284962760933
120.49070404684312
110.63108252146534
105.1531732870342
102.3409259998039
101.00074585139475
100.40477227704497
100.15609840817301
100.05820652773585
100.0216608545275
100.00866129756974
100.00424461852148
100.0028363587137
100.00251845801074
100.00283635861953
100.00424461819826
100.0086613052244
100.02166087776806
100.05820645433687
100.15609847445447
100.40477266165736
101.00074575210449
102.34092791325301
105.15317067161598
110.63108545130771
120.49069502862496
136.83285249147903
161.73646512232108
196.6546835847793
196.65860390979495
161.740493980524
136.83702280080294
120.49496093468184
110.63539908213353
105.15753018470967
102.34530872082743
101.00514421562788
100.40917960462757
100.16051059376113
100.0626212050145
100.02607674220026
100.01307774243855
100.00866130565606
100.00725314202614
100.00693526640646
100.00725314193203
100.00866130533291
100.0130777500929
100.02607676543983
100.06262113161769
100.16051066004114
100.40917998923344
101.0051441163392
102.345310634257
105.15752756931349
110.63540201195657
120.49495191651427
136.8370256646589
161.74052672148292
196.65860358516338
196.6701756659672
161.7524824528338
136.84933700848765
120.50751695278176
110.64812517367596
105.17036940410884
102.35821902010743
101.01809667190301
100.42215565909214
100.17349912005649
100.0756159600456
100.03907444050087
100.02607675812041
100.02166087853355
100.02025293070993
100.01993511047924
100.02025293061587
100.02166087821055
100.02607676577378
100.03907446373833
100.07561588665394
100.17349918633283
100.42215604368134
101.01809657261836
102.3582209334838
105.17036678877373
110.64812810344424
120.50750793475918
136.84933987230428
161.75251519338414
196.67017534133794
196.70280356251735
161.78628151537322
136.88404376421008
120.54288990502545
110.68396002475913
105.20650625887579
102.39454188449909
101.05452741218454
100.4586453193776
100.21001911091207
100.1121506858612
100.07561593370612
100.06262119459004
100.05820652539423
100.05679903472097
100.05648132991513
100.05679903462696
100.05820652507117
100.06262120224157
100.07561595693899
100.11215061248191
100.21001917717945
100.45864570392538
101.05452731291025
102.39454379773758
105.20650364370194
110.68396295438008
120.54288088739987
136.88404662791737
161.7863142547799
196.7028032378954
196.79045619238934
161.8770697371682
136.9772405017519
120.63783327301869
110.7800962754443
105.30340849523019
102.49190618312176
101.15215352035564
100.55641085144516
100.3078545129535
100.21001909716514
100.17349907997973
100.16051056959228
100.15609839208265
100.15469181953087
100.15437434282222
100.15469181943682
100.15609839176
100.16051057723995
100.17349910320266
100.21001902381293
100.3078545792006
100.55641123589623
101.15215342110552
102.4919080960213
105.30340588046002
110.78009920468782
120.63782425642552
136.97724336517072
161.87710247352692
196.79045586778835
197.0137533623711
162.1083268900596
137.21455518269454
120.87948618342408
111.02466587141758
105.54981622433
102.73939917256425
101.4002469727773
100.80481598358367
100.556411688771
100.45864614317892
100.42215645667838
100.40918041814608
100.40477309864796
100.40336827415452
100.40305122501465
100.40336827406074
100.40477309832563
100.40918042578608
100.42215647988108
100.45864606988326
100.55641175497449
100.80481636782064
101.40024687358098
102.73940108467572
105.5498136105162
111.02466879974546
120.8794771693737
137.21455804539184
162.10835961871618
197.01375303782672
197.55037136377044
162.66400543515832
137.7846005926994
121.45968907164733
111.61158859217575
106.14089356951807
103.33287663023222
101.99502100714895
101.40024608752961
101.15215347095251
101.05452734904753
101.01809658249839
101.00514414209091
101.00074578591176
100.99934411530668
100.99902782630706
100.99934411521312
101.00074578559023
101.00514414971644
101.01809660566197
101.05452727586322
101.1521535370678
101.40024647132074
101.99502090806517
103.33287854061923
106.14089095783714
111.61159151841166
121.45968006349862
137.78460345369518
162.66403814545848
197.55037103936942
198.76021232919524
163.91666494777408
139.06922408090668
122.7666188912372
112.93303743545061
107.47114838979645
104.66810970943627
103.33288086785426
102.73940253083006
102.49191037708574
102.39454606552518
102.35822317525722
102.34531289191858
102.34093017896589
102.33953389997592
102.33921889280846
102.33953389988275
102.34093017864555
102.34531289951838
102.35822319834983
102.39454599254691
102.49191044303305
102.73940291374915
103.33288076899142
104.66811161628294
107.47114578257663
112.9330403572042
122.76660989593404
139.06922693813723
163.9166976170322
198.76021200513304
201.3050532651541
166.55125395382933
141.77017356250713
125.5132864632954
115.70898994869052
110.26453250243416
107.47114386877158
106.14089326249447
105.54981503753983
105.30340813874884
105.20650588870556
105.17036900786991
105.15752980420426
105.15317291450721
105.1517853707309
105.15147241472725
105.15178537063835
105.15317291418887
105.15752981176108
105.17036903084093
105.20650581608682
105.30340820439616
105.54981541885999
106.14089316403836
107.4711457688226
110.26452990393194
115.70899286147664
125.51327749408786
141.77017641196238
166.5512865374625
201.30505294183476
206.27288233901734
171.69369051863458
147.04054133309901
130.8707104272401
121.12133274898571
115.70898940699581
112.93303240023634
111.61158774313587
111.02466414864185
110.7800953768353
110.68395911250813
110.6481242355575
110.63539815961036
110.63108160684621
110.62970748397764
110.62939764497428
110.62970748388594
110.63108160653097
110.63539816709932
110.64812425833281
110.68395904047915
110.78009544197931
111.02466452721801
111.6115876453805
112.93303428812372
115.70898682436044
121.1213356450845
130.8707015073021
147.04054416763813
171.69372293641885
206.27288201719819
215.23141777663145
180.96612230836084
156.54102988263725
140.52463769557284
130.87070958042528
125.51328507556207
122.766613056067
121.4596873765008
120.87948362426329
120.6378315282071
120.54288814665736
120.50751516885514
120.49495916614006
120.49070228609472
120.48934773721983
120.48904240140446
120.4893477371295
120.49070228578381
120.4949591735275
120.50751519133286
120.54288807553864
120.63783159255972
120.8794839984348
121.45968727987426
122.76661492368517
125.51328251976565
130.87071244772508
140.5246288617926
156.54103269070333
180.96615442920282
215.23141745758954
230.10361659609475
196.35801890603025
172.30773586803087
156.54102865904508
147.04053926466463
141.77017095553023
139.0692170983314
137.78459767891562
137.2145514195696
136.97723753829086
136.88404078733572
136.8493340065034
136.83701981390135
136.83284664834557
136.8315192368361
136.83122009507528
136.83151923674762
136.83284664804074
136.83701982114545
136.84933402855424
136.88404071754033
136.97723760147483
137.21455178712569
137.78459758398955
139.06921893452508
141.77016844188088
147.04054208595056
156.54101996450188
172.30773863275286
196.35805053697712
230.10361628175414
252.7955386237501
219.84115292258247
196.35808181248385
180.96618499496114
171.6937529717374
166.5513162117263
163.91672310897974
162.66406764645038
162.10838831019765
161.87713195208417
161.78634372331155
161.75254463860858
161.7405561818052
161.73649459021755
161.73520300744596
161.73491199191557
161.73520300735996
161.73649458992097
161.74055618885686
161.75254466008042
161.78634365533009
161.8771320136459
162.10838866844395
162.6640675539229
163.91672489981303
166.55131375954642
171.69375572497
180.966176508256
196.3580845118098
219.84118380982474
252.79553831668034
284.64128300984123
252.79548141775638
230.1036188014242
215.23141886248163
206.2728826496795
201.30505308039685
198.76020802925368
197.5503708998815
197.01375210061858
196.790455683895
196.7028030416641
196.67017512161172
196.65860337965606
196.65468338646127
196.65343695124753
196.65315612648857
196.65343695116445
196.65468338617515
196.65860338646237
196.67017514233856
196.70280297603435
196.79045574333455
197.01375244655995
197.5503708105299
198.7602097589919
201.30505071164515
206.27288530958666
215.23141066275065
230.10362140973152
252.79551126517995
284.64128271306527

