# vtk DataFile Version 2.0
Unstructured Grid Example
ASCII
DATASET UNSTRUCTURED_GRID

POINTS 961 float
0.100000001 0.00499999989 0
0.0966666639 0.00499999989 0
0.0933333337 0.00499999989 0
0.0900000036 0.00499999989 0
0.086666666 0.00499999989 0
0.0833333358 0.00499999989 0
0.0799999982 0.00499999989 0
0.0766666681 0.00499999989 0
0.0733333305 0.00499999989 0
0.0700000003 0.00499999989 0
0.0666666701 0.00499999989 0
0.0633333325 0.00499999989 0
0.0599999987 0.00499999989 0
0.0566666685 0.00499999989 0
0.0533333346 0.00499999989 0
0.0500000007 0.00499999989 0
0.0466666669 0.00499999989 0
0.043333333 0.00499999989 0
0.0399999991 0.00499999989 0
0.0366666652 0.00499999989 0
0.0333333351 0.00499999989 0
0.0299999993 0.00499999989 0
0.0266666673 0.00499999989 0
0.0233333334 0.00499999989 0
0.0199999996 0.00499999989 0
0.0166666675 0.00499999989 0
0.0133333337 0.00499999989 0
0.00999999978 0.00499999989 0
0.00666666683 0.00499999989 0
0.00333333341 0.00499999989 0
0 0.00499999989 0
0.100000001 0.00166666671 0
0.0966666639 0.00166666671 0
0.0933333337 0.00166666671 0
0.0900000036 0.00166666671 0
0.086666666 0.00166666671 0
0.0833333358 0.00166666671 0
0.0799999982 0.00166666671 0
0.0766666681 0.00166666671 0
0.0733333305 0.00166666671 0
0.0700000003 0.00166666671 0
0.0666666701 0.00166666671 0
0.0633333325 0.00166666671 0
0.0599999987 0.00166666671 0
0.0566666685 0.00166666671 0
0.0533333346 0.00166666671 0
0.0500000007 0.00166666671 0
0.0466666669 0.00166666671 0
0.043333333 0.00166666671 0
0.0399999991 0.00166666671 0
0.0366666652 0.00166666671 0
0.0333333351 0.00166666671 0
0.0299999993 0.00166666671 0
0.0266666673 0.00166666671 0
0.0233333334 0.00166666671 0
0.0199999996 0.00166666671 0
0.0166666675 0.00166666671 0
0.0133333337 0.00166666671 0
0.00999999978 0.00166666671 0
0.00666666683 0.00166666671 0
0.00333333341 0.00166666671 0
0 0.00166666671 0
0.100000001 -0.00166666671 0
0.0966666639 -0.00166666671 0
0.0933333337 -0.00166666671 0
0.0900000036 -0.00166666671 0
0.086666666 -0.00166666671 0
0.0833333358 -0.00166666671 0
0.0799999982 -0.00166666671 0
0.0766666681 -0.00166666671 0
0.0733333305 -0.00166666671 0
0.0700000003 -0.00166666671 0
0.0666666701 -0.00166666671 0
0.0633333325 -0.00166666671 0
0.0599999987 -0.00166666671 0
0.0566666685 -0.00166666671 0
0.0533333346 -0.00166666671 0
0.0500000007 -0.00166666671 0
0.0466666669 -0.00166666671 0
0.043333333 -0.00166666671 0
0.0399999991 -0.00166666671 0
0.0366666652 -0.00166666671 0
0.0333333351 -0.00166666671 0
0.0299999993 -0.00166666671 0
0.0266666673 -0.00166666671 0
0.0233333334 -0.00166666671 0
0.0199999996 -0.00166666671 0
0.0166666675 -0.00166666671 0
0.0133333337 -0.00166666671 0
0.00999999978 -0.00166666671 0
0.00666666683 -0.00166666671 0
0.00333333341 -0.00166666671 0
0 -0.00166666671 0
0.100000001 -0.00499999989 0
0.0966666639 -0.00499999989 0
0.0933333337 -0.00499999989 0
0.0900000036 -0.00499999989 0
0.086666666 -0.00499999989 0
0.0833333358 -0.00499999989 0
0.0799999982 -0.00499999989 0
0.0766666681 -0.00499999989 0
0.0733333305 -0.00499999989 0
0.0700000003 -0.00499999989 0
0.0666666701 -0.00499999989 0
0.0633333325 -0.00499999989 0
0.0599999987 -0.00499999989 0
0.0566666685 -0.00499999989 0
0.0533333346 -0.00499999989 0
0.0500000007 -0.00499999989 0
0.0466666669 -0.00499999989 0
0.043333333 -0.00499999989 0
0.0399999991 -0.00499999989 0
0.0366666652 -0.00499999989 0
0.0333333351 -0.00499999989 0
0.0299999993 -0.00499999989 0
0.0266666673 -0.00499999989 0
0.0233333334 -0.00499999989 0
0.0199999996 -0.00499999989 0
0.0166666675 -0.00499999989 0
0.0133333337 -0.00499999989 0
0.00999999978 -0.00499999989 0
0.00666666683 -0.00499999989 0
0.00333333341 -0.00499999989 0
0 -0.00499999989 0
0.100000001 -0.00833333377 0
0.0966666639 -0.00833333377 0
0.0933333337 -0.00833333377 0
0.0900000036 -0.00833333377 0
0.086666666 -0.00833333377 0
0.0833333358 -0.00833333377 0
0.0799999982 -0.00833333377 0
0.0766666681 -0.00833333377 0
0.0733333305 -0.00833333377 0
0.0700000003 -0.00833333377 0
0.0666666701 -0.00833333377 0
0.0633333325 -0.00833333377 0
0.0599999987 -0.00833333377 0
0.0566666685 -0.00833333377 0
0.0533333346 -0.00833333377 0
0.0500000007 -0.00833333377 0
0.0466666669 -0.00833333377 0
0.043333333 -0.00833333377 0
0.0399999991 -0.00833333377 0
0.0366666652 -0.00833333377 0
0.0333333351 -0.00833333377 0
0.0299999993 -0.00833333377 0
0.0266666673 -0.00833333377 0
0.0233333334 -0.00833333377 0
0.0199999996 -0.00833333377 0
0.0166666675 -0.00833333377 0
0.0133333337 -0.00833333377 0
0.00999999978 -0.00833333377 0
0.00666666683 -0.00833333377 0
0.00333333341 -0.00833333377 0
0 -0.00833333377 0
0.100000001 -0.0116666667 0
0.0966666639 -0.0116666667 0
0.0933333337 -0.0116666667 0
0.0900000036 -0.0116666667 0
0.086666666 -0.0116666667 0
0.0833333358 -0.0116666667 0
0.0799999982 -0.0116666667 0
0.0766666681 -0.0116666667 0
0.0733333305 -0.0116666667 0
0.0700000003 -0.0116666667 0
0.0666666701 -0.0116666667 0
0.0633333325 -0.0116666667 0
0.0599999987 -0.0116666667 0
0.0566666685 -0.0116666667 0
0.0533333346 -0.0116666667 0
0.0500000007 -0.0116666667 0
0.0466666669 -0.0116666667 0
0.043333333 -0.0116666667 0
0.0399999991 -0.0116666667 0
0.0366666652 -0.0116666667 0
0.0333333351 -0.0116666667 0
0.0299999993 -0.0116666667 0
0.0266666673 -0.0116666667 0
0.0233333334 -0.0116666667 0
0.0199999996 -0.0116666667 0
0.0166666675 -0.0116666667 0
0.0133333337 -0.0116666667 0
0.00999999978 -0.0116666667 0
0.00666666683 -0.0116666667 0
0.00333333341 -0.0116666667 0
0 -0.0116666667 0
0.100000001 -0.0149999997 0
0.0966666639 -0.0149999997 0
0.0933333337 -0.0149999997 0
0.0900000036 -0.0149999997 0
0.086666666 -0.0149999997 0
0.0833333358 -0.0149999997 0
0.0799999982 -0.0149999997 0
0.0766666681 -0.0149999997 0
0.0733333305 -0.0149999997 0
0.0700000003 -0.0149999997 0
0.0666666701 -0.0149999997 0
0.0633333325 -0.0149999997 0
0.0599999987 -0.0149999997 0
0.0566666685 -0.0149999997 0
0.0533333346 -0.0149999997 0
0.0500000007 -0.0149999997 0
0.0466666669 -0.0149999997 0
0.043333333 -0.0149999997 0
0.0399999991 -0.0149999997 0
0.0366666652 -0.0149999997 0
0.0333333351 -0.0149999997 0
0.0299999993 -0.0149999997 0
0.0266666673 -0.0149999997 0
0.0233333334 -0.0149999997 0
0.0199999996 -0.0149999997 0
0.0166666675 -0.0149999997 0
0.0133333337 -0.0149999997 0
0.00999999978 -0.0149999997 0
0.00666666683 -0.0149999997 0
0.00333333341 -0.0149999997 0
0 -0.0149999997 0
0.100000001 -0.0183333326 0
0.0966666639 -0.0183333326 0
0.0933333337 -0.0183333326 0
0.0900000036 -0.0183333326 0
0.086666666 -0.0183333326 0
0.0833333358 -0.0183333326 0
0.0799999982 -0.0183333326 0
0.0766666681 -0.0183333326 0
0.0733333305 -0.0183333326 0
0.0700000003 -0.0183333326 0
0.0666666701 -0.0183333326 0
0.0633333325 -0.0183333326 0
0.0599999987 -0.0183333326 0
0.0566666685 -0.0183333326 0
0.0533333346 -0.0183333326 0
0.0500000007 -0.0183333326 0
0.0466666669 -0.0183333326 0
0.043333333 -0.0183333326 0
0.0399999991 -0.0183333326 0
0.0366666652 -0.0183333326 0
0.0333333351 -0.0183333326 0
0.0299999993 -0.0183333326 0
0.0266666673 -0.0183333326 0
0.0233333334 -0.0183333326 0
0.0199999996 -0.0183333326 0
0.0166666675 -0.0183333326 0
0.0133333337 -0.0183333326 0
0.00999999978 -0.0183333326 0
0.00666666683 -0.0183333326 0
0.00333333341 -0.0183333326 0
0 -0.0183333326 0
0.100000001 -0.0216666665 0
0.0966666639 -0.0216666665 0
0.0933333337 -0.0216666665 0
0.0900000036 -0.0216666665 0
0.086666666 -0.0216666665 0
0.0833333358 -0.0216666665 0
0.0799999982 -0.0216666665 0
0.0766666681 -0.0216666665 0
0.0733333305 -0.0216666665 0
0.0700000003 -0.0216666665 0
0.0666666701 -0.0216666665 0
0.0633333325 -0.0216666665 0
0.0599999987 -0.0216666665 0
0.0566666685 -0.0216666665 0
0.0533333346 -0.0216666665 0
0.0500000007 -0.0216666665 0
0.0466666669 -0.0216666665 0
0.043333333 -0.0216666665 0
0.0399999991 -0.0216666665 0
0.0366666652 -0.0216666665 0
0.0333333351 -0.0216666665 0
0.0299999993 -0.0216666665 0
0.0266666673 -0.0216666665 0
0.0233333334 -0.0216666665 0
0.0199999996 -0.0216666665 0
0.0166666675 -0.0216666665 0
0.0133333337 -0.0216666665 0
0.00999999978 -0.0216666665 0
0.00666666683 -0.0216666665 0
0.00333333341 -0.0216666665 0
0 -0.0216666665 0
0.100000001 -0.0250000004 0
0.0966666639 -0.0250000004 0
0.0933333337 -0.0250000004 0
0.0900000036 -0.0250000004 0
0.086666666 -0.0250000004 0
0.0833333358 -0.0250000004 0
0.0799999982 -0.0250000004 0
0.0766666681 -0.0250000004 0
0.0733333305 -0.0250000004 0
0.0700000003 -0.0250000004 0
0.0666666701 -0.0250000004 0
0.0633333325 -0.0250000004 0
0.0599999987 -0.0250000004 0
0.0566666685 -0.0250000004 0
0.0533333346 -0.0250000004 0
0.0500000007 -0.0250000004 0
0.0466666669 -0.0250000004 0
0.043333333 -0.0250000004 0
0.0399999991 -0.0250000004 0
0.0366666652 -0.0250000004 0
0.0333333351 -0.0250000004 0
0.0299999993 -0.0250000004 0
0.0266666673 -0.0250000004 0
0.0233333334 -0.0250000004 0
0.0199999996 -0.0250000004 0
0.0166666675 -0.0250000004 0
0.0133333337 -0.0250000004 0
0.00999999978 -0.0250000004 0
0.00666666683 -0.0250000004 0
0.00333333341 -0.0250000004 0
0 -0.0250000004 0
0.100000001 -0.0283333343 0
0.0966666639 -0.0283333343 0
0.0933333337 -0.0283333343 0
0.0900000036 -0.0283333343 0
0.086666666 -0.0283333343 0
0.0833333358 -0.0283333343 0
0.0799999982 -0.0283333343 0
0.0766666681 -0.0283333343 0
0.0733333305 -0.0283333343 0
0.0700000003 -0.0283333343 0
0.0666666701 -0.0283333343 0
0.0633333325 -0.0283333343 0
0.0599999987 -0.0283333343 0
0.0566666685 -0.0283333343 0
0.0533333346 -0.0283333343 0
0.0500000007 -0.0283333343 0
0.0466666669 -0.0283333343 0
0.043333333 -0.0283333343 0
0.0399999991 -0.0283333343 0
0.0366666652 -0.0283333343 0
0.0333333351 -0.0283333343 0
0.0299999993 -0.0283333343 0
0.0266666673 -0.0283333343 0
0.0233333334 -0.0283333343 0
0.0199999996 -0.0283333343 0
0.0166666675 -0.0283333343 0
0.0133333337 -0.0283333343 0
0.00999999978 -0.0283333343 0
0.00666666683 -0.0283333343 0
0.00333333341 -0.0283333343 0
0 -0.0283333343 0
0.100000001 -0.0316666663 0
[...]
POINT_DATA 961
SCALARS Temp float 1
LOOKUP_TABLE default
299.23740994530607
267.48865126614936
244.04549746117343
227.91478122859232
217.58638961327915
211.4307591875631
208.01026047858275
206.23347947613183
205.3677796163514
204.97065621153556
204.79845537739476
204.72759298748522
204.69982054951683
204.689446092294
204.6858377627625
204.68497342758857
204.68583776251006
204.68944609148994
204.69982056649212
204.72759303417945
204.79845524193112
204.97065632231025
205.36778019631063
206.23347932901743
208.0102628939864
211.43075610298516
217.5863927771418
227.9147720263716
244.0455002073789
267.4886815364182
299.23740968299364
267.48868371066703
234.62043782672822
210.34975248953378
193.64878840781694
182.95460159137897
176.58049412569747
173.03830494822827
171.19814978518903
170.3014895189916
169.89012476784325
169.71173163719
169.63831412754885
169.6095376240014
169.59878714036884
169.5950477274456
169.59415194518795
169.5950477271839
169.59878713953563
169.60953764159112
169.63831417592849
169.7117314968484
169.89012488259561
170.30149011971486
171.19814963281033
173.03830744966038
176.58049093148102
182.95460486739898
193.64877887995178
210.34975533273723
234.62046916492005
267.48868343914796
244.0455018523928
210.3497225995069
185.46551035119464
168.3400860834546
157.37228184759604
150.83381563219083
147.1994967862302
145.31103496501612
144.39060772040105
143.96823150229395
143.7850158769789
143.70959430022856
143.6800248175022
143.66897539695015
143.66513116086088
143.664210133557
143.66513116059187
143.66897539609374
143.6800248355785
143.70959434993347
143.78501573282466
143.96823162013266
144.39060833711028
145.3110348085901
147.1994993529867
150.83381235517245
157.37228520771998
168.3400763125375
185.4655132664286
210.3497547282506
244.04550157415468
227.914772334199
193.6487441774692
168.34007189815088
150.9194221583392
139.7600516528449
133.1056298364821
129.40575879481307
127.48261192404091
126.54495752463636
126.11452278741493
125.92774393670317
125.85082758274802
125.82066120337132
125.80938479799593
125.80546035195096
125.80451990875953
125.80546035167626
125.80938479712178
125.82066122181506
125.85082763344494
125.92774378971849
126.11452290752261
126.54495815297793
127.48261176467528
129.40576140823438
133.10562650074118
139.76005507204925
150.919412217755
168.3400748633277
193.6487768520329
227.91477205141385
217.58639318756622
182.95456989518175
157.37228085090481
139.760065230733
128.4753757881551
121.74437602417636
118.00075534352094
116.05419662597329
115.10477653799681
114.66877173876372
114.4795003387412
114.40152597415586
114.37093225139276
114.35949156242683
114.3555085019641
114.35455378041884
114.3555085016853
114.35949156153968
114.37093227010077
114.40152602555769
114.47950018976469
114.66877186044889
115.10477717432138
116.05419646459484
118.00075798824088
121.74437264940296
128.47537924616893
139.76005517956037
157.3722838483645
182.95460292071147
217.5863929019323
211.43075766200644
176.5804569235672
150.83380918772846
133.10563796691727
121.74437042154533
114.9660559404716
111.19506810866446
109.23366834512585
108.27668542024695
107.83704903550202
107.6461292331991
107.5674452722253
107.53656098999795
107.5250071387135
107.52098323598113
107.52001849007756
107.52098323569933
107.52500713781724
107.53656100888647
107.5674453241025
107.64612908289567
107.83704915822288
108.27668606173275
109.23366818244972
111.19507077307786
114.96605254139831
121.74437390338946
133.1056278484565
150.8338122046435
176.58049015930533
211.4307573747209
208.01026320699654
173.03827202571446
147.19949484450507
129.40577156425437
118.00075438212865
111.1950728067051
107.40803493128304
105.43779986397693
104.47624301689795
104.0343744316175
103.84242475327308
103.76329022878535
103.73221851732461
103.72059056140446
103.71653955430206
103.71556809774597
103.71653955401824
103.72059056050223
103.73221853633036
103.76329028096616
103.84242460213356
104.03437455497995
104.47624366152581
105.43779970051344
107.40803760732238
111.19506939345706
118.00075787766119
129.40576140753538
147.19949787236607
173.03830537890312
208.0102629188234
206.23347996720528
171.1981144799748
145.31103063669195
127.48262229264638
116.05419320682708
109.23367057944174
105.43779737841886
103.46261852954069
102.4984577235522
102.0552954164672
101.86273793674121
101.78333265631002
101.75214629917714
101.74047223979234
101.7364041149012
101.73542837858224
101.73640411461612
101.74047223888638
101.75214631825521
101.78333270867442
101.8627377851036
102.05529554020472
102.49845836998206
103.46261836562725
105.4378000609043
109.23366715843625
116.05419670972731
127.48261211556
145.31103367031528
171.19814789453534
206.2334796785886
205.3677806479045
170.3014547414493
144.39060396243934
126.54496848899059
115.10477370815275
108.27668825503014
104.47624112908215
102.4984583261509
101.53290046553371
101.08903060705401
100.89613413321278
100.81657484118283
100.785321992346
100.77362069031462
100.7695422818784
100.7685639467307
100.76954228159262
100.77362068940644
100.78532201146623
100.81657489365256
100.89613398129461
101.08903073099874
101.53290111293812
102.49845816199513
104.47624381493033
108.27668483003345
115.10477721477831
126.5449583017242
144.3906069989102
170.30148818609703
205.36778035908105
204.97065653766043
169.89008924476406
143.9682269921302
126.11453299219247
114.66876813301808
107.8370510911018
104.03437175798652
102.05529523258775
101.0890298188996
100.6447943193182
100.45171899337925
100.37207672380244
100.34078729685054
100.32907070372052
100.32498641934367
100.32400658199738
100.32498641905752
100.32907070281118
100.34078731599425
100.37207677632937
100.45171884131136
100.64479444337111
101.08903046680169
102.05529506830881
104.0343744454887
107.83704766416969
114.6687716414183
126.11452280013373
143.96823002992625
169.8901227033013
204.97065624874668
204.79845556406445
169.71169596315812
143.78501121751427
125.9277539922815
114.47949657880486
107.64613113461273
103.8424219233055
101.8627375967307
100.89613318840425
100.45171883686662
100.25855412442115
100.17886946565517
100.1475609385326
100.13583618907737
100.13174871070814
100.1307680467982
100.1317487104218
100.13583618816735
100.14756095768868
100.17886951821154
100.2585539722776
100.4517189609731
100.89613383654685
101.8627374323926
103.84242461157702
107.6461277067935
114.47950008800431
125.92774379809018
143.78501425589351
169.7117294277563
204.79845527511367
204.72759331286196
169.63827859453954
143.70958978800053
125.85083778973568
114.40152236642936
107.5674473278033
103.76328755327778
101.78333247159017
100.81657405184679
100.37207672305303
100.17886962153432
100.09916440343878
100.06784640007575
100.05611751354064
100.05202838298376
100.05104728607756
100.0520283826973
100.05611751263028
100.06784641923802
100.0991644560095
100.17886946935438
100.37207684718459
100.8165747000997
101.7833323072252
103.76329024188868
107.56744389959847
114.40152587597024
125.85082759464433
143.70959282662315
169.63831206164733
204.72759302389676
204.6998208541085
169.60950206840076
143.68002028300356
125.8206713881575
114.37092862065239
107.536563022595
103.73221581846781
101.7521460911614
100.7853211796211
100.34078727274695
100.14756107106194
100.06784637670262
100.0365239039859
100.024793021847
100.020703078244
100.01972176551723
100.02070307795748
100.02479302093647
100.03652392315104
100.06784642928011
100.1475609188654
100.34078739688958
100.785321827922
101.75214592678468
103.73221850722099
107.5365595942309
114.3709321303319
125.82066119270465
143.68002332172273
169.6095355364983
204.6998205651379
204.68944638215393
169.59875156910607
143.66897084670674
125.80939496691052
114.35948791539082
107.52500915494993
103.72058784598993
101.74047201520727
100.77361986096288
100.32907066299332
100.13583630497926
100.05611747352685
100.0247930052048
100.01306121212933
100.00897089006939
100.00798947562542
100.0089708897828
100.0130612112186
100.0247930243712
100.05611752610717
100.13583615277548
100.32907078714064
100.77362050928359
101.74047185082577
103.72059053479974
107.52500572652305
114.35949142512389
125.8093847713193
143.66897388546255
169.59878503757534
204.68944609318146
204.68583805448625
169.59501215797542
143.66512661258272
125.80547052294014
114.35550485696366
107.52098525430723
103.71653684095604
101.73640389241226
100.76954145462
100.32498638072175
100.13174882871962
100.05202834507737
100.02070306371006
100.00897089217825
100.00488041015635
100.00389895225022
100.00488040986978
100.00897089126748
100.02070308287685
100.05202839765873
100.13174867651298
100.32498650487094
100.76954210294824
101.73640372802888
103.7165395297867
107.52098182585765
114.355508366716
125.80546032729977
143.66512965135146
169.59504562657463
204.68583776551324
204.68497372053125
169.5941163769476
143.66420558657288
125.80453008108661
114.35455013675963
107.52002050976725
103.71556538576434
101.73542815746853
100.76856312084914
100.32400654475677
100.13076816619272
100.05104724955403
100.01972175236668
100.00798947911787
100.00389895363382
100.00291748383829
100.00389895334725
100.00798947820704
100.01972177153357
100.0510473021357
100.13076801398533
100.32400666890638
100.76856376917922
101.73542799308466
103.7155680746002
107.52001708131199
114.35455364651664
125.80451988543432
143.66420862534468
169.5941498455782
204.68497343155812
204.68583805515414
169.59501215866754
143.6651266132942
125.80547052366651
114.35550485770091
107.52098525505208
103.716536841706
101.7364038931654
100.76954145537512
100.32498638147793
100.13174882947642
100.05202834583442
100.02070306446727
100.00897089293551
100.0048804109137
100.00389895300754
100.004880410627
100.00897089202472
100.0207030836341
100.05202839841579
100.13174867726977
100.32498650562701
100.76954210370323
101.73640372878198
103.71653953053666
107.52098182660245
114.35550836745324
125.80546032802624
143.66512965206294
169.59504562726696
204.68583776618107
204.68944638404824
169.59875157106907
143.6689708487245
125.80939496896978
114.35948791748041
107.5250091570605
103.72058784811416
101.7404720173402
100.77361986310088
100.32907066513422
100.13583630712161
100.05611747567002
100.02479300734838
100.01306121427308
100.00897089221317
100.00798947776923
100.00897089192655
100.01306121336229
100.02479302651476
100.05611752825041
100.13583615491783
100.32907078928137
100.77362051142134
101.7404718529585
103.72059053692388
107.52500572863354
114.35949142721344
125.80938477337855
143.66897388748023
169.59878503953828
204.68944609507565
204.69982085922592
169.60950207370342
143.68002028845277
125.82067139371728
114.37092862629153
107.53656302828836
103.73221582419642
101.7521460969115
100.7853211853839
100.34078727851677
100.14756107683542
100.06784638247798
100.03652390976208
100.0247930276235
100.02070308402065
100.01972177129387
100.02070308373409
100.0247930267129
100.0365239289272
100.06784643505533
100.14756092463881
100.34078740265923
100.78532183368455
101.75214593253466
103.7322185129494
107.53655959992416
114.370932135971
125.8206611982642
143.68002332717165
169.60953554180068
204.69982057025524
204.72759332744812
169.63827860965193
143.7095898035268
125.85083780557146
114.40152238248496
107.56744734400702
103.76328756957604
101.78333248794561
100.816574068235
100.37207673945899
100.17886963794935
100.09916441985838
100.06784641649737
100.05611752996312
100.0520283994065
100.05104730250041
100.05202839911996
100.05611752905273
100.0678464356594
100.09916447242892
100.1788694857693
100.37207686359028
100.8165747164877
101.78333232358037
103.7632902581868
107.56744391580213
114.40152589202565
125.85082761047988
143.7095928421491
169.63831207675963
204.7275930384827
204.79845566388738
169.7116960665746
143.78501132373725
125.92775410058586
114.47949668857224
107.6461312453531
103.84242203465782
101.86273770844703
100.89613330032519
100.45171894889644
100.25855423650582
100.17886957776616
100.14756105065555
100.13583630120532
100.13174882283808
100.13076815892857
100.13174882255171
100.13583630029515
100.14756106981142
100.17886963032235
100.2585540843621
100.45171907300268
100.89613394846756
101.86273754410882
103.84242472292935
107.64612781753384
114.47950019777156
125.92774390639445
143.7850143621162
169.71172953117235
204.79845537493642
204.97065647490695
169.89008917975565
143.96822692536904
126.11453292413954
114.6687680640644
107.83705102155467
104.03437168807008
102.05529516245457
101.08902974864611
100.64479424900145
100.45171892303114
100.37207665343944
100.34078722648086
100.32907063334792
100.32498634896996
100.32400651162334
100.32498634868372
100.32907063243856
100.34078724562447
100.37207670596625
100.45171877096313
100.64479437305427
101.0890303965481
102.05529499817557
104.0343743755723
107.83704759462253
114.66877157246466
126.11452273208079
143.96822996316507
169.89012263829272
204.97065618599316
205.36778115016418
170.30145526169298
144.39060449653226
126.54496903316426
115.10477425924775
108.27668881060202
104.47624168738113
102.49845888601483
101.53290102624467
101.08903116819769
100.89613469456573
100.81657540263171
100.78532255383668
100.7736212518225
100.7695428433929
100.76856450824685
100.76954284310723
100.77362125091443
100.78532257295699
100.81657545510149
100.89613454264757
101.08903129214238
101.53290167364895
102.49845872185902
104.47624437322922
108.27668538560529
115.10477776587335
126.54495884589798
144.39060753300316
170.3014887063408
205.3677808613409
206.23347965802
171.19811415973945
145.31103030798857
127.48262195781987
116.05419286783057
109.23367023777398
105.43779703514184
103.46261818535153
102.49845737887595
102.05529507154536
101.8627375917022
101.78333231121808
101.75214595406244
101.74047189466837
101.73640376977373
101.73542803345394
101.73640376948883
101.74047189376263
101.75214597314064
101.7833323635827
101.86273744006485
102.05529519528298
102.49845802530577
103.46261802143805
105.4377997176273
109.23366681676842
116.05419637073078
127.48261178073354
145.31103334161227
171.19814757429998
206.23347936940337
208.01026604688482
173.03827496675495
147.1994978623646
129.40577463700046
118.00075749169692
111.19507593944839
107.40803807771242
105.43780301799742
104.47624617488003
104.03437759154897
103.84242791411151
103.76329339002399
103.732221678731
103.72059372287778
103.71654271580003
103.71557125925004
103.71654271551634
103.72059372197576
103.73222169773702
103.763293442205
103.84242776297219
104.03437771491147
104.47624681950784
105.43780285453384
107.40804075375162
111.19507252620032
118.00076098722931
129.40576448028156
147.19950089022552
173.03830831994358
208.01026575871157
211.43075897963013
176.5804582879785
150.83381058738271
133.10563939147826
121.74437186259068
114.96605739172855
111.19506956584561
109.23366980553027
108.2766868822999
107.83705049834953
107.64613069640878
107.56744673559156
107.5365624534284
107.52500860216912
107.52098469944596
107.52001995354465
107.52098469916429
107.5250086012731
107.53656247231717
107.56744678746875
107.64613054610543
107.83705062107047
108.27668752378558
109.233669642854
111.19507223025869
114.96605399265518
121.74437534443476
133.10562927301743
150.8338136042977
176.58049152371655
211.4307586923445
217.58638886180503
182.95456541602576
157.37227625662416
139.76006055548876
128.4753710596515
121.74437126291673
118.00075056341194
116.05419183569911
115.10477174257252
114.66876694088108
114.47949553974956
114.40152117468953
114.37092745173311
114.35948676269237
114.35550370220284
114.35454898065103
114.3555037019241
114.35948676180534
114.37092747044126
114.40152122609153
114.47949539077307
114.66876706256632
115.10477237889698
116.05419167432031
118.00075320813168
121.744367888143
128.47537451766516
139.76005050431598
157.37227925408376
182.95459844155545
217.58638857617117
227.9147796775747
193.64875178067402
168.3400796952143
150.9194300906649
139.76005967328396
133.10563791050043
129.40576689927482
127.48262004469863
126.54496565338391
126.11453091996829
125.92775207094928
125.85083571770832
125.8206693386181
125.80939293335236
125.80546848734625
125.80452804416431
125.80546848707168
125.80939293247822
125.82066935706193
125.85083576840512
125.92775192396455
126.11453104007602
126.54496628172512
127.48261988533262
129.4057695126956
133.10563457475897
139.760063092488
150.91942015008044
168.34008266039072
193.64878445523726
227.9147793947893
244.04549483247797
210.34971533159106
185.4655028990116
168.34007850341766
157.3722741848471
150.83380791955398
147.19948904550316
145.31102720949028
144.39059995755872
143.96822373604522
143.7850081092311
143.7095865318548
143.6800170488796
143.66896762823347
143.6651233921109
143.66420236479905
143.66512339184197
143.6689676273771
143.68001706695603
143.70958658155968
143.7850079650768
143.96822385388373
144.39060057426775
145.31102705306398
147.19949161225915
150.83380464253494
157.37227754497061
168.3400687325001
185.46550581424506
210.34974746033464
244.0454945542397
267.4887090458555
234.62046405572315
210.3497793801652
193.64881575524205
182.95462923250963
176.58052194272855
173.03833286353301
171.19817775184026
170.30151751081283
169.89015277128257
169.71175964569866
169.6383421381563
169.60956563543633
169.5988151521147
169.59507573930003
169.5941799570686
169.5950757390386
169.59881515128166
169.60956565302627
169.63834218653602
169.71175950535695
169.8901528860348
170.30151811153584
171.19817759946133
173.03833536496472
176.5805187485118
182.9546325085292
193.64880622737664
210.34978222336795
234.6204953939137
267.4887087743363
299.2374097947894
267.48865111035695
244.04549730154466
227.91478106637925
217.58638944945616
211.43075902281205
208.01026031333586
206.2334793106388
205.36777945074422
204.97065604587877
204.7984552117178
204.7275928218005
204.69982038382898
204.68944592660512
204.68583759707317
204.68497326189947
204.68583759682107
204.68944592580135
204.6998204008045
204.72759286849458
204.79845507625393
204.97065615665338
205.36778003070336
206.23347916352412
208.0102627287394
211.43075593823377
217.58639261331848
227.9147718641583
244.04550004774967
267.48868138062534
299.23740953247653

