# vtk DataFile Version 2.0
Unstructured Grid Example
ASCII
DATASET UNSTRUCTURED_GRID

POINTS 961 float
0.100000001 0.00499999989 0
0.0966666639 0.00499999989 0
0.0933333337 0.00499999989 0
0.0900000036 0.00499999989 0
0.086666666 0.00499999989 0
0.0833333358 0.00499999989 0
0.0799999982 0.00499999989 0
0.0766666681 0.00499999989 0
0.0733333305 0.00499999989 0
0.0700000003 0.00499999989 0
0.0666666701 0.00499999989 0
0.0633333325 0.00499999989 0
0.0599999987 0.00499999989 0
0.0566666685 0.00499999989 0
0.0533333346 0.00499999989 0
0.0500000007 0.00499999989 0
0.0466666669 0.00499999989 0
0.043333333 0.00499999989 0
0.0399999991 0.00499999989 0
0.0366666652 0.00499999989 0
0.0333333351 0.00499999989 0
0.0299999993 0.00499999989 0
0.0266666673 0.00499999989 0
0.0233333334 0.00499999989 0
0.0199999996 0.00499999989 0
0.0166666675 0.00499999989 0
0.0133333337 0.00499999989 0
0.00999999978 0.00499999989 0
0.00666666683 0.00499999989 0
0.00333333341 0.00499999989 0
0 0.00499999989 0
0.100000001 0.00166666671 0
0.0966666639 0.00166666671 0
0.0933333337 0.00166666671 0
0.0900000036 0.00166666671 0
0.086666666 0.00166666671 0
0.0833333358 0.00166666671 0
0.0799999982 0.00166666671 0
0.0766666681 0.00166666671 0
0.0733333305 0.00166666671 0
0.0700000003 0.00166666671 0
0.0666666701 0.00166666671 0
0.0633333325 0.00166666671 0
0.0599999987 0.00166666671 0
0.0566666685 0.00166666671 0
0.0533333346 0.00166666671 0
0.0500000007 0.00166666671 0
0.0466666669 0.00166666671 0
0.043333333 0.00166666671 0
0.0399999991 0.00166666671 0
0.0366666652 0.00166666671 0
0.0333333351 0.00166666671 0
0.0299999993 0.00166666671 0
0.0266666673 0.00166666671 0
0.0233333334 0.00166666671 0
0.0199999996 0.00166666671 0
0.0166666675 0.00166666671 0
0.0133333337 0.00166666671 0
0.00999999978 0.00166666671 0
0.00666666683 0.00166666671 0
0.00333333341 0.00166666671 0
0 0.00166666671 0
0.100000001 -0.00166666671 0
0.0966666639 -0.00166666671 0
0.0933333337 -0.00166666671 0
0.0900000036 -0.00166666671 0
0.086666666 -0.00166666671 0
0.0833333358 -0.00166666671 0
0.0799999982 -0.00166666671 0
0.0766666681 -0.00166666671 0
0.0733333305 -0.00166666671 0
0.0700000003 -0.00166666671 0
0.0666666701 -0.00166666671 0
0.0633333325 -0.00166666671 0
0.0599999987 -0.00166666671 0
0.0566666685 -0.00166666671 0
0.0533333346 -0.00166666671 0
0.0500000007 -0.00166666671 0
0.0466666669 -0.00166666671 0
0.043333333 -0.00166666671 0
0.0399999991 -0.00166666671 0
0.0366666652 -0.00166666671 0
0.0333333351 -0.00166666671 0
0.0299999993 -0.00166666671 0
0.0266666673 -0.00166666671 0
0.0233333334 -0.00166666671 0
0.0199999996 -0.00166666671 0
0.0166666675 -0.00166666671 0
0.0133333337 -0.00166666671 0
0.00999999978 -0.00166666671 0
0.00666666683 -0.00166666671 0
0.00333333341 -0.00166666671 0
0 -0.00166666671 0
0.100000001 -0.00499999989 0
0.0966666639 -0.00499999989 0
0.0933333337 -0.00499999989 0
0.0900000036 -0.00499999989 0
0.086666666 -0.00499999989 0
0.0833333358 -0.00499999989 0
0.0799999982 -0.00499999989 0
0.0766666681 -0.00499999989 0
0.0733333305 -0.00499999989 0
0.0700000003 -0.00499999989 0
0.0666666701 -0.00499999989 0
0.0633333325 -0.00499999989 0
0.0599999987 -0.00499999989 0
0.0566666685 -0.00499999989 0
0.0533333346 -0.00499999989 0
0.0500000007 -0.00499999989 0
0.0466666669 -0.00499999989 0
0.043333333 -0.00499999989 0
0.0399999991 -0.00499999989 0
0.0366666652 -0.00499999989 0
0.0333333351 -0.00499999989 0
0.0299999993 -0.00499999989 0
0.0266666673 -0.00499999989 0
0.0233333334 -0.00499999989 0
0.0199999996 -0.00499999989 0
0.0166666675 -0.00499999989 0
0.0133333337 -0.00499999989 0
0.00999999978 -0.00499999989 0
0.00666666683 -0.00499999989 0
0.00333333341 -0.00499999989 0
0 -0.00499999989 0
0.100000001 -0.00833333377 0
0.0966666639 -0.00833333377 0
0.0933333337 -0.00833333377 0
0.0900000036 -0.00833333377 0
0.086666666 -0.00833333377 0
0.0833333358 -0.00833333377 0
0.0799999982 -0.00833333377 0
0.0766666681 -0.00833333377 0
0.0733333305 -0.00833333377 0
0.0700000003 -0.00833333377 0
0.0666666701 -0.00833333377 0
0.0633333325 -0.00833333377 0
0.0599999987 -0.00833333377 0
0.0566666685 -0.00833333377 0
0.0533333346 -0.00833333377 0
0.0500000007 -0.00833333377 0
0.0466666669 -0.00833333377 0
0.043333333 -0.00833333377 0
0.0399999991 -0.00833333377 0
0.0366666652 -0.00833333377 0
0.0333333351 -0.00833333377 0
0.0299999993 -0.00833333377 0
0.0266666673 -0.00833333377 0
0.0233333334 -0.00833333377 0
0.0199999996 -0.00833333377 0
0.0166666675 -0.00833333377 0
0.0133333337 -0.00833333377 0
0.00999999978 -0.00833333377 0
0.00666666683 -0.00833333377 0
0.00333333341 -0.00833333377 0
0 -0.00833333377 0
0.100000001 -0.0116666667 0
0.0966666639 -0.0116666667 0
0.0933333337 -0.0116666667 0
0.0900000036 -0.0116666667 0
0.086666666 -0.0116666667 0
0.0833333358 -0.0116666667 0
0.0799999982 -0.0116666667 0
0.0766666681 -0.0116666667 0
0.0733333305 -0.0116666667 0
0.0700000003 -0.0116666667 0
0.0666666701 -0.0116666667 0
0.0633333325 -0.0116666667 0
0.0599999987 -0.0116666667 0
0.0566666685 -0.0116666667 0
0.0533333346 -0.0116666667 0
0.0500000007 -0.0116666667 0
0.0466666669 -0.0116666667 0
0.043333333 -0.0116666667 0
0.0399999991 -0.0116666667 0
0.0366666652 -0.0116666667 0
0.0333333351 -0.0116666667 0
0.0299999993 -0.0116666667 0
0.0266666673 -0.0116666667 0
0.0233333334 -0.0116666667 0
0.0199999996 -0.0116666667 0
0.0166666675 -0.0116666667 0
0.0133333337 -0.0116666667 0
0.00999999978 -0.0116666667 0
0.00666666683 -0.0116666667 0
0.00333333341 -0.0116666667 0
0 -0.0116666667 0
0.100000001 -0.0149999997 0
0.0966666639 -0.0149999997 0
0.0933333337 -0.0149999997 0
0.0900000036 -0.0149999997 0
0.086666666 -0.0149999997 0
0.0833333358 -0.0149999997 0
0.0799999982 -0.0149999997 0
0.0766666681 -0.0149999997 0
0.0733333305 -0.0149999997 0
0.0700000003 -0.0149999997 0
0.0666666701 -0.0149999997 0
0.0633333325 -0.0149999997 0
0.0599999987 -0.0149999997 0
0.0566666685 -0.0149999997 0
0.0533333346 -0.0149999997 0
0.0500000007 -0.0149999997 0
0.0466666669 -0.0149999997 0
0.043333333 -0.0149999997 0
0.0399999991 -0.0149999997 0
0.0366666652 -0.0149999997 0
0.0333333351 -0.0149999997 0
0.0299999993 -0.0149999997 0
0.0266666673 -0.0149999997 0
0.0233333334 -0.0149999997 0
0.0199999996 -0.0149999997 0
0.0166666675 -0.0149999997 0
0.0133333337 -0.0149999997 0
0.00999999978 -0.0149999997 0
0.00666666683 -0.0149999997 0
0.00333333341 -0.0149999997 0
0 -0.0149999997 0
0.100000001 -0.0183333326 0
0.0966666639 -0.0183333326 0
0.0933333337 -0.0183333326 0
0.0900000036 -0.0183333326 0
0.086666666 -0.0183333326 0
0.0833333358 -0.0183333326 0
0.0799999982 -0.0183333326 0
0.0766666681 -0.0183333326 0
0.0733333305 -0.0183333326 0
0.0700000003 -0.0183333326 0
0.0666666701 -0.0183333326 0
0.0633333325 -0.0183333326 0
0.0599999987 -0.0183333326 0
0.0566666685 -0.0183333326 0
0.0533333346 -0.0183333326 0
0.0500000007 -0.0183333326 0
0.0466666669 -0.0183333326 0
0.043333333 -0.0183333326 0
0.0399999991 -0.0183333326 0
0.0366666652 -0.0183333326 0
0.0333333351 -0.0183333326 0
0.0299999993 -0.0183333326 0
0.0266666673 -0.0183333326 0
0.0233333334 -0.0183333326 0
0.0199999996 -0.0183333326 0
0.0166666675 -0.0183333326 0
0.0133333337 -0.0183333326 0
0.00999999978 -0.0183333326 0
0.00666666683 -0.0183333326 0
0.00333333341 -0.0183333326 0
0 -0.0183333326 0
0.100000001 -0.0216666665 0
0.0966666639 -0.0216666665 0
0.0933333337 -0.0216666665 0
0.0900000036 -0.0216666665 0
0.086666666 -0.0216666665 0
0.0833333358 -0.0216666665 0
0.0799999982 -0.0216666665 0
0.0766666681 -0.0216666665 0
0.0733333305 -0.0216666665 0
0.0700000003 -0.0216666665 0
0.0666666701 -0.0216666665 0
0.0633333325 -0.0216666665 0
0.0599999987 -0.0216666665 0
0.0566666685 -0.0216666665 0
0.0533333346 -0.0216666665 0
0.0500000007 -0.0216666665 0
0.0466666669 -0.0216666665 0
0.043333333 -0.0216666665 0
0.0399999991 -0.0216666665 0
0.0366666652 -0.0216666665 0
0.0333333351 -0.0216666665 0
0.0299999993 -0.0216666665 0
0.0266666673 -0.0216666665 0
0.0233333334 -0.0216666665 0
0.0199999996 -0.0216666665 0
0.0166666675 -0.0216666665 0
0.0133333337 -0.0216666665 0
0.00999999978 -0.0216666665 0
0.00666666683 -0.0216666665 0
0.00333333341 -0.0216666665 0
0 -0.0216666665 0
0.100000001 -0.0250000004 0
0.0966666639 -0.0250000004 0
0.0933333337 -0.0250000004 0
0.0900000036 -0.0250000004 0
0.086666666 -0.0250000004 0
0.0833333358 -0.0250000004 0
0.0799999982 -0.0250000004 0
0.0766666681 -0.0250000004 0
0.0733333305 -0.0250000004 0
0.0700000003 -0.0250000004 0
0.0666666701 -0.0250000004 0
0.0633333325 -0.0250000004 0
0.0599999987 -0.0250000004 0
0.0566666685 -0.0250000004 0
0.0533333346 -0.0250000004 0
0.0500000007 -0.0250000004 0
0.0466666669 -0.0250000004 0
0.043333333 -0.0250000004 0
0.0399999991 -0.0250000004 0
0.0366666652 -0.0250000004 0
0.0333333351 -0.0250000004 0
0.0299999993 -0.0250000004 0
0.0266666673 -0.0250000004 0
0.0233333334 -0.0250000004 0
0.0199999996 -0.0250000004 0
0.0166666675 -0.0250000004 0
0.0133333337 -0.0250000004 0
0.00999999978 -0.0250000004 0
0.00666666683 -0.0250000004 0
0.00333333341 -0.0250000004 0
0 -0.0250000004 0
0.100000001 -0.0283333343 0
0.0966666639 -0.0283333343 0
0.0933333337 -0.0283333343 0
0.0900000036 -0.0283333343 0
0.086666666 -0.0283333343 0
0.0833333358 -0.0283333343 0
0.0799999982 -0.0283333343 0
0.0766666681 -0.0283333343 0
0.0733333305 -0.0283333343 0
0.0700000003 -0.0283333343 0
0.0666666701 -0.0283333343 0
0.0633333325 -0.0283333343 0
0.0599999987 -0.0283333343 0
0.0566666685 -0.0283333343 0
0.0533333346 -0.0283333343 0
0.0500000007 -0.0283333343 0
0.0466666669 -0.0283333343 0
0.043333333 -0.0283333343 0
0.0399999991 -0.0283333343 0
0.0366666652 -0.0283333343 0
0.0333333351 -0.0283333343 0
0.0299999993 -0.0283333343 0
0.0266666673 -0.0283333343 0
0.0233333334 -0.0283333343 0
0.0199999996 -0.0283333343 0
0.0166666675 -0.0283333343 0
0.0133333337 -0.0283333343 0
0.00999999978 -0.0283333343 0
0.00666666683 -0.0283333343 0
0.00333333341 -0.0283333343 0
0 -0.0283333343 0
0.100000001 -0.0316666663 0
[...]
POINT_DATA 961
SCALARS Temp float 1
LOOKUP_TABLE default
276.70109786331903
244.83758324142076
222.63696538892913
208.52869967439253
200.3519092301438
196.0176208184023
193.9060981558912
192.95493661748893
192.5561183059396
192.3994239589005
192.3413645621578
192.32095627272548
192.3141150033276
192.31192081274511
192.31125732409578
192.3111129673292
192.3112573240526
192.3119208125897
192.3141150072679
192.3209562854287
192.34136451984708
192.39942399952574
192.55611855741319
192.9549365518206
193.90609955858613
196.01761881377362
200.35191161114724
208.5286920647063
222.6369679124566
244.83761279118104
276.70109755363825
244.83761497108404
211.87366980274203
188.9047775601734
174.30693440728894
165.84544148164463
161.35966399698034
159.1740384468096
158.18935539173938
157.77642227732588
157.61415935098927
157.55402843130312
157.53288922310216
157.5258020557622
157.52352873395762
157.52284124561382
157.52269165648798
157.52284124556897
157.52352873379667
157.5258020598444
157.53288923626093
157.55402838748014
157.61415939306067
157.77642253771364
158.18935532374527
159.1740398988198
161.3596619221136
165.84544394568795
174.3069265330234
188.904780171115
211.87370037399526
244.8376146507308
222.63696948754279
188.90474820654313
165.39645476611346
150.4522609035015
141.7874854598227
137.1924076165018
134.95271702587604
133.9432957000139
133.51982698840973
133.35336130147954
133.29165028537852
133.26994792657584
133.2626695055856
133.26033409474925
133.25962762821928
133.25947387953366
133.25962762817323
133.26033409458375
133.2626695097785
133.2699479400868
133.2916502403966
133.35336134464805
133.51982725547978
133.94329563028032
134.95271851404254
137.192405490614
141.78748798342733
150.45225284106007
165.39645743859293
188.90477949284224
222.63696915978758
208.528692423138
174.3068928187479
150.45224881580236
135.28337002283146
126.4850641051608
121.81716954296512
119.54091263596246
118.5144987386818
118.0836808840052
117.9142393418372
117.85139338393668
117.82928102464598
117.82186158774849
117.81947985708813
117.81875908500089
117.81860217882557
117.81875908495405
117.81947985691943
117.82186159202332
117.8292810384146
117.85139333811703
117.91423938578734
118.0836811557638
118.51449866773129
119.54091414874536
121.81716738277251
126.48506666813057
135.28336183743653
150.45225152794043
174.3069245623373
208.52869209072023
200.3519120491551
165.8454100271091
141.78748400469314
126.48507500977394
117.60619136963608
112.89358700896635
110.59445489693945
109.55720385220694
109.12160784539122
108.95019479805262
108.88658327485183
108.86418959997722
108.85667184971554
108.85425734492836
108.85352631808543
108.85336712854456
108.85352631803785
108.85425734475729
108.85667185404775
108.86418961392353
108.88658322846257
108.95019484252502
109.12160812022026
109.55720378046236
110.59445642524973
112.89358482746817
117.60619395654024
126.48506675066587
141.7874867402134
165.84544203779154
200.3519117140755
196.0176199923256
161.35962861679607
137.1924022768748
121.8171765614849
112.89358303110438
108.15567207179778
105.84330910054246
104.7996470707364
104.36115946660753
104.18852637481645
104.12443077716952
104.10185554554604
104.09427311274278
104.09183665698373
104.09109865311268
104.0909378935564
104.09109865306452
104.0918366568109
104.09427311711309
104.10185555960797
104.12443073041656
104.18852641961526
104.36115974331119
104.79964699850893
105.8433106379215
108.15566987807911
112.89358563140456
121.8171682617805
137.19240502503308
161.35966077030713
196.01761965586746
193.90609991328887
159.17400566547101
134.95271441657295
119.5409224596331
110.59445372461637
105.84331193338609
103.52386518496608
102.47668359872414
102.03656743156087
101.86322953196361
101.7988472954135
101.77616198444628
101.76853944748139
101.7660890956509
101.76534659324703
101.76518480889676
101.7653465931985
101.76608909547703
101.76853945187547
101.7761619985788
101.79884724844251
101.86322957695312
102.03656770933085
102.47668352622327
103.52386672725335
105.8433097331842
110.59445633183519
119.54091413932652
134.95271717101895
159.1740378892238
193.90609957618068
192.9549370656605
158.18932122090513
133.94329169711486
118.51450715980243
109.557201249787
104.79964847036506
102.47668215658554
101.42770442198812
100.98673382336558
100.81301570935824
100.74847455233659
100.72572657441069
100.71808062397902
100.71562196582657
100.71487671788466
100.71471429932927
100.71487671783596
100.71562196565209
100.7180806283872
100.7257265885837
100.74847450524321
100.8130157544519
100.98673410170122
101.42770434934273
102.4766837013399
104.7996462669728
109.5572038603156
118.5144988298181
133.94329445445513
158.18935347660945
192.954936728271
192.55611896524687
157.77638831064112
133.51982320785376
118.08368953757359
109.12160547234237
104.36116109965741
102.0365662217758
100.98673405730759
100.54534504833256
100.37143516170659
100.30681145415221
100.28402997421335
100.27637115579071
100.27390781194894
100.2731609790694
100.27299818873324
100.27316097902062
100.27390781177412
100.27637116020671
100.28402998840838
100.30681140699437
100.37143520685356
100.54534532694849
100.98673398459096
102.03656776768561
104.36115889480321
109.12160808434476
118.08368120335885
133.51982596643464
157.77642057987376
192.5561186277452
192.3994243111393
157.6141250606055
133.35335719402403
117.914247665257
108.9501920887456
104.18852767032965
101.86322798246188
100.81301560336267
100.37143482130442
100.19743431280233
100.13277037493901
100.10997206240181
100.10230658407829
100.09984074584364
100.09909304785484
100.09893005118852
100.0990930478061
100.09984074566866
100.10230658849841
100.10997207660806
100.13277032774926
100.197434357975
100.37143510005036
100.81301553061307
101.86322952887772
104.188525464849
108.950194701362
117.91423932931157
133.35335995310294
157.6141573352046
192.39942397359602
192.34136486895133
157.55399409170403
133.29164612931757
117.85140165880576
108.88658051547498
104.1244320226282
101.79884569526949
100.7484743957638
100.30681106305164
100.13277032427662
100.0680879544479
100.04528168212035
100.03761295498755
100.03514586311672
100.03439771862296
100.03423461357251
100.03439771857414
100.03514586294169
100.03761295940964
100.04528169633187
100.06808790724335
100.13277036946083
100.3068113418542
100.7484743230001
101.79884724189361
104.12442981689526
108.88658312833215
117.85139332219377
133.29164888858506
157.55402636830985
192.34136453139357
192.32095662149166
157.53285492621566
133.26994381503522
117.82928934521424
108.86418688653445
104.10185683745378
101.77616043083259
100.72572646456706
100.28402962988487
100.10997205857265
100.04528172897554
100.02247190707813
100.0148016841242
100.01233399691436
100.01158563442361
100.01142247548016
100.01158563437482
100.01233399673929
100.01480168854724
100.02247192129204
100.0452816817644
100.10997210376175
100.2840299087108
100.72572639179758
101.7761619775378
104.10185463162483
108.86418949948094
117.8292810083594
133.26994657437024
157.53288720353294
192.32095628392918
192.3141153459241
157.52576775222815
133.2626653874485
117.82186990171517
108.85666912946995
104.09427439784633
101.76853788698001
100.71808050725669
100.27637080456459
100.10230657335755
100.03761299495152
100.01480167722913
100.00713080330583
100.00466284873644
100.00391438554229
100.00375120123643
100.0039143854935
100.00466284856131
100.00713080772931
100.01480169144413
100.03761294773754
100.10230661854852
100.27637108339954
100.71808043448497
101.76853943371499
104.09427219198277
108.8566717424478
117.8218615647761
133.26266814680648
157.52580002978596
192.31411500836006
192.31192115200153
157.5234944268802
133.26032997304608
117.8194881674583
108.85425462099855
104.09183793838845
101.76608753141262
100.7156218453648
100.27390745697325
100.09984073137377
100.03514589933104
100.01233398626769
100.00466284498461
100.00219477716176
100.00144627010808
100.00128307455351
100.00144627005923
100.00219477698658
100.00466284940818
100.01233400048294
100.03514585211596
100.09984077656553
100.27390773581165
100.7156217725922
101.76608907815799
104.0918357325128
108.85425723398691
117.81947983049125
133.26033273241157
157.52352670451572
192.31192081443703
192.3112576637309
157.5228069389032
133.25962350691546
117.81876739579063
108.8535235945688
104.09109993494022
101.76534502942829
100.71487659784701
100.27316062451752
100.09909303381066
100.03439775526341
100.0115856242029
100.0039143822166
100.00144627053422
100.00069774606716
100.000534545974
100.00069774601839
100.00144627035903
100.00391438664006
100.01158563841821
100.03439770804796
100.0990930790027
100.27316090335697
100.71487652507413
101.76534657617707
104.09109772906082
108.85352620756045
117.81875905881488
133.25962626628328
157.52283921656235
192.31125732616624
192.31111330717115
157.52265734998625
133.25946975844946
117.818610489842
108.85336440525522
104.09093917561485
101.76518324530907
100.71471417952431
100.27299783441435
100.09893003737795
100.03423465044673
100.01142246549315
100.00375119814454
100.0012830752135
100.00053454620787
100.00037134491946
100.0005345461591
100.00128307503824
100.00375120256804
100.01142247970847
100.03423460323127
100.09893008257
100.27299811325396
100.71471410675132
101.76518479205868
104.09093696973459
108.8533670182476
117.81860215286429
133.25947251781776
157.52268962765066
192.31111296960657
192.31125766385125
157.52280693902793
133.25962350704364
117.81876739592136
108.85352359470146
104.09109993507413
101.76534502956311
100.71487659798235
100.2731606246532
100.0990930339464
100.03439775539925
100.01158562433874
100.00391438235245
100.00144627067013
100.00069774620314
100.00053454610999
100.00069774615427
100.00144627049491
100.00391438677599
100.01158563855414
100.03439770818389
100.09909307913837
100.27316090349247
100.71487652520933
101.76534657631193
104.09109772919473
108.85352620769315
117.81875905894567
133.2596262664115
157.5228392166873
192.31125732628672
192.31192115238434
157.5234944272768
133.26032997345348
117.81948816787376
108.85425462141984
104.0918379388137
101.76608753184031
100.71562184579405
100.27390745740338
100.09984073180433
100.03514589976169
100.01233398669845
100.00466284541548
100.0021947775927
100.00144627053899
100.00128307498439
100.0014462704901
100.00219477741747
100.00466284983905
100.01233400091385
100.03514585254668
100.09984077699595
100.27390773624151
100.71562177302131
101.76608907858564
104.0918357329381
108.85425723440822
117.81947983090677
133.26033273281894
157.52352670491223
192.3119208148198
192.31411534712592
157.52576775347322
133.26266538872736
117.8218699030189
108.85666913079119
104.09427439917913
101.76853788831998
100.71808050860096
100.27637080591123
100.1023065747054
100.03761299629988
100.01480167857787
100.00713080465468
100.00466285008532
100.00391438689114
100.00375120258525
100.00391438684227
100.0046628499101
100.0071308090781
100.01480169279272
100.03761294908601
100.10230661989624
100.27637108474596
100.71808043582907
101.7685394350549
104.09427219331548
108.85667174376897
117.82186156607969
133.26266814808517
157.5258000310309
192.3141150095618
192.3209566254879
157.53285493035526
133.26994381928552
117.8292893495455
108.86418689092152
104.10185684187707
101.77616043527807
100.72572646902528
100.28402963434995
100.10997206304118
100.04528173344568
100.02247191154906
100.01480168859548
100.01233400138568
100.01158563889493
100.01142247995146
100.0115856388461
100.0123340012106
100.01480169301834
100.02247192576284
100.04528168623445
100.10997210823011
100.28402991317569
100.72572639625557
101.77616198198311
104.10185463604803
108.8641895038678
117.8292810126905
133.26994657862033
157.53288720767245
192.32095628792527
192.34136490060186
157.5539941244854
133.29164616296495
117.85140169307815
108.88658055017198
104.1244320575958
101.79884573039882
100.74847443098389
100.30681109831929
100.13277035956781
100.06808798974996
100.04528171742719
100.03761299029634
100.03514589842618
100.03439775393261
100.03423464888223
100.03439775388387
100.03514589825103
100.03761299471833
100.04528173163861
100.06808794254528
100.13277040475182
100.30681137712172
100.74847435822005
101.79884727702299
104.12442985186283
108.88658316302909
117.85139335646616
133.29164892223216
157.5540264010909
192.3413645630439
192.39942428896038
157.61412503763628
133.35335717045405
117.91424764125756
108.95019206445816
104.18852764586134
101.86322795788722
100.81301557872969
100.37143479664135
100.19743428812473
100.1327703502548
100.10997203771474
100.10230655938999
100.09984072115478
100.0990930231659
100.09893002649952
100.0990930231171
100.09984072097988
100.10230656381005
100.10997205192088
100.13277030306497
100.19743433329727
100.37143507538723
100.81301550598012
101.86322950430312
104.1885254403807
108.95019467707459
117.91423930531212
133.35335992953293
157.6141573122352
192.39942395141702
192.55611918185244
157.77638853492607
133.51982343789743
118.08368977165965
109.12160570907774
104.36116133801137
102.03656646105142
100.98673429707254
100.54534528834039
100.37143540182714
100.30681169432202
100.28403021440329
100.2763713959885
100.27390805214957
100.273161219271
100.27299842893517
100.27316121922235
100.27390805197481
100.27637140040456
100.28403022859841
100.30681164716414
100.37143544697413
100.54534556695624
100.98673422435594
102.0365680069611
104.36115913315726
109.12160832108015
118.08368143744494
133.51982619647833
157.7764208041587
192.5561188443509
192.95493691751892
158.189321067527
133.94329153984003
118.5145069998213
109.55720108805512
104.79964830757996
102.47668199321113
101.42770425830666
100.9867336595349
100.81301554545958
100.74847438840878
100.72572641047113
100.71808046003493
100.71562180188086
100.7148765539385
100.71471413538296
100.71487655388994
100.71562180170659
100.71808046444329
100.72572642464436
100.74847434131559
100.81301559055332
100.98673393787051
101.42770418566123
102.47668353796547
104.79964610418766
109.55720369858368
118.51449866983685
133.94329429718059
158.18935332323127
192.95493658012958
193.9061015581415
159.17400736815623
134.95271616166693
119.54092423360781
110.59445551681472
105.84331373623189
103.52386699357753
102.47668541023518
102.03656924443064
101.86323134542884
101.79884910912398
101.77616379825203
101.7685412613222
101.76609090950406
101.76534840710423
101.76518662275491
101.7653484070559
101.76609090933034
101.76854126571646
101.77616381238471
101.79884906215315
101.86323139041839
102.03656952220058
102.47668533773418
103.52386853586465
105.84331153602996
110.5944581240334
119.54091591330122
134.9527189161128
159.17403959190915
193.90610122103314
196.01762089757517
161.3596295537088
137.19240323667898
121.81717753658133
112.89358401562231
108.15567306166953
105.84331009322561
104.79964806478826
104.36116046127971
104.1885273697517
104.12443177220966
104.1018565406258
104.09427410783647
104.09183765208232
104.09109964821285
104.09093888865698
104.09109964816483
104.09183765190963
104.094274112207
104.10185655468767
104.12443172545674
104.18852741455052
104.36116073798327
104.79964799256065
105.84331163060433
108.15567086795075
112.8935866159224
121.81716923687698
137.19240598483745
161.35966170721986
196.01762056111698
200.3519088501721
165.84540671649623
141.7874806138901
126.48507156586146
117.60618789334858
112.8935835145046
110.5944513930604
109.55720034380718
109.12160433497142
108.95019128678837
108.8865797632555
108.86418608825727
108.85666833795187
108.85425383315011
108.85352280630258
108.85336361676062
108.85352280625499
108.85425383297914
108.85666834228431
108.86418610220375
108.8865797168663
108.95019133126074
109.1216046098003
109.55720027206225
110.59445292137042
112.89358133300617
117.6061904802525
126.48506330675328
141.78748334941025
165.8454387271787
200.35190851509242
208.52869854883647
174.30689915735536
150.45225530569257
135.28337661144548
126.48507075287448
121.81717622317531
119.54091933263797
118.51450544307977
118.08368759177415
117.91424605098331
117.85140009361274
117.82928773451495
117.82186829768425
117.81948656704607
117.81876579496569
117.81860888879193
117.81876579491876
117.81948656687734
117.8218683019591
117.82928774828353
117.85140004779312
117.91424609493345
118.08368786353232
118.51450537212894
119.54092084542032
121.8171740629821
126.48507331584386
135.28336842605032
150.45225801783033
174.30693090094445
208.52869821641858
222.63696313695436
188.90474163581393
165.39644804010445
150.4522540771653
141.78747857416172
137.19240069867928
134.9527100920074
133.9432887587396
133.51982004395518
133.35335435574618
133.29164333916074
133.26994098018423
133.2626625591345
133.26032714827886
133.25962068174277
133.25946693305588
133.2596206816968
133.2603271481134
133.26266256332752
133.26994099369512
133.29164329417884
133.35335439891452
133.51982031102497
133.94328868900575
134.95271158017343
137.19239857279095
141.78748109776595
150.45224601472356
165.39645071258357
188.904772922113
222.636962809199
244.8376397124866
211.87369539942
188.9048037555412
174.3069609855284
165.84546828350327
161.35969091841207
159.17406542704092
158.1893823987141
157.77644929562243
157.61418637377614
157.55405545576895
157.53291624816313
157.52582908102437
157.52355575928482
157.52286827096046
157.52271868183902
157.5228682709159
157.5235557591238
157.5258290851067
157.53291626132193
157.5540554119459
157.6141864158474
157.77644955600994
158.1893823307197
159.17406687905088
161.35968884354511
165.84547074754616
174.30695311126266
188.9048063664822
211.87372597067204
244.83763939213313
276.7010976689833
244.83758304041643
222.63696518335507
208.52869946598395
200.3519090201454
196.01762060759495
193.90609794470865
192.95493640614646
192.55611809453387
192.3994237474715
192.3413643507208
192.32095606128584
192.314114791887
192.31192060130428
192.31125711265483
192.31111275588833
192.31125711261166
192.311920601149
192.31411479582738
192.32095607398898
192.34136430841
192.39942378809658
192.55611834600725
192.95493634047776
193.90609934740328
196.0176186029661
200.3519114011485
208.5286918562975
222.63696770688225
244.83761259017655
276.701097359302

