# vtk DataFile Version 2.0
Unstructured Grid Example
ASCII
DATASET UNSTRUCTURED_GRID

POINTS 961 float
0.100000001 0.00499999989 0
0.0966666639 0.00499999989 0
0.0933333337 0.00499999989 0
0.0900000036 0.00499999989 0
0.086666666 0.00499999989 0
0.0833333358 0.00499999989 0
0.0799999982 0.00499999989 0
0.0766666681 0.00499999989 0
0.0733333305 0.00499999989 0
0.0700000003 0.00499999989 0
0.0666666701 0.00499999989 0
0.0633333325 0.00499999989 0
0.0599999987 0.00499999989 0
0.0566666685 0.00499999989 0
0.0533333346 0.00499999989 0
0.0500000007 0.00499999989 0
0.0466666669 0.00499999989 0
0.043333333 0.00499999989 0
0.0399999991 0.00499999989 0
0.0366666652 0.00499999989 0
0.0333333351 0.00499999989 0
0.0299999993 0.00499999989 0
0.0266666673 0.00499999989 0
0.0233333334 0.00499999989 0
0.0199999996 0.00499999989 0
0.0166666675 0.00499999989 0
0.0133333337 0.00499999989 0
0.00999999978 0.00499999989 0
0.00666666683 0.00499999989 0
0.00333333341 0.00499999989 0
0 0.00499999989 0
0.100000001 0.00166666671 0
0.0966666639 0.00166666671 0
0.0933333337 0.00166666671 0
0.0900000036 0.00166666671 0
0.086666666 0.00166666671 0
0.0833333358 0.00166666671 0
0.0799999982 0.00166666671 0
0.0766666681 0.00166666671 0
0.0733333305 0.00166666671 0
0.0700000003 0.00166666671 0
0.0666666701 0.00166666671 0
0.0633333325 0.00166666671 0
0.0599999987 0.00166666671 0
0.0566666685 0.00166666671 0
0.0533333346 0.00166666671 0
0.0500000007 0.00166666671 0
0.0466666669 0.00166666671 0
0.043333333 0.00166666671 0
0.0399999991 0.00166666671 0
0.0366666652 0.00166666671 0
0.0333333351 0.00166666671 0
0.0299999993 0.00166666671 0
0.0266666673 0.00166666671 0
0.0233333334 0.00166666671 0
0.0199999996 0.00166666671 0
0.0166666675 0.00166666671 0
0.0133333337 0.00166666671 0
0.00999999978 0.00166666671 0
0.00666666683 0.00166666671 0
0.00333333341 0.00166666671 0
0 0.00166666671 0
0.100000001 -0.00166666671 0
0.0966666639 -0.00166666671 0
0.0933333337 -0.00166666671 0
0.0900000036 -0.00166666671 0
0.086666666 -0.00166666671 0
0.0833333358 -0.00166666671 0
0.0799999982 -0.00166666671 0
0.0766666681 -0.00166666671 0
0.0733333305 -0.00166666671 0
0.0700000003 -0.00166666671 0
0.0666666701 -0.00166666671 0
0.0633333325 -0.00166666671 0
0.0599999987 -0.00166666671 0
0.0566666685 -0.00166666671 0
0.0533333346 -0.00166666671 0
0.0500000007 -0.00166666671 0
0.0466666669 -0.00166666671 0
0.043333333 -0.00166666671 0
0.0399999991 -0.00166666671 0
0.0366666652 -0.00166666671 0
0.0333333351 -0.00166666671 0
0.0299999993 -0.00166666671 0
0.0266666673 -0.00166666671 0
0.0233333334 -0.00166666671 0
0.0199999996 -0.00166666671 0
0.0166666675 -0.00166666671 0
0.0133333337 -0.00166666671 0
0.00999999978 -0.00166666671 0
0.00666666683 -0.00166666671 0
0.00333333341 -0.00166666671 0
0 -0.00166666671 0
0.100000001 -0.00499999989 0
0.0966666639 -0.00499999989 0
0.0933333337 -0.00499999989 0
0.0900000036 -0.00499999989 0
0.086666666 -0.00499999989 0
0.0833333358 -0.00499999989 0
0.0799999982 -0.00499999989 0
0.0766666681 -0.00499999989 0
0.0733333305 -0.00499999989 0
0.0700000003 -0.00499999989 0
0.0666666701 -0.00499999989 0
0.0633333325 -0.00499999989 0
0.0599999987 -0.00499999989 0
0.0566666685 -0.00499999989 0
0.0533333346 -0.00499999989 0
0.0500000007 -0.00499999989 0
0.0466666669 -0.00499999989 0
0.043333333 -0.00499999989 0
0.0399999991 -0.00499999989 0
0.0366666652 -0.00499999989 0
0.0333333351 -0.00499999989 0
0.0299999993 -0.00499999989 0
0.0266666673 -0.00499999989 0
0.0233333334 -0.00499999989 0
0.0199999996 -0.00499999989 0
0.0166666675 -0.00499999989 0
0.0133333337 -0.00499999989 0
0.00999999978 -0.00499999989 0
0.00666666683 -0.00499999989 0
0.00333333341 -0.00499999989 0
0 -0.00499999989 0
0.100000001 -0.00833333377 0
0.0966666639 -0.00833333377 0
0.0933333337 -0.00833333377 0
0.0900000036 -0.00833333377 0
0.086666666 -0.00833333377 0
0.0833333358 -0.00833333377 0
0.0799999982 -0.00833333377 0
0.0766666681 -0.00833333377 0
0.0733333305 -0.00833333377 0
0.0700000003 -0.00833333377 0
0.0666666701 -0.00833333377 0
0.0633333325 -0.00833333377 0
0.0599999987 -0.00833333377 0
0.0566666685 -0.00833333377 0
0.0533333346 -0.00833333377 0
0.0500000007 -0.00833333377 0
0.0466666669 -0.00833333377 0
0.043333333 -0.00833333377 0
0.0399999991 -0.00833333377 0
0.0366666652 -0.00833333377 0
0.0333333351 -0.00833333377 0
0.0299999993 -0.00833333377 0
0.0266666673 -0.00833333377 0
0.0233333334 -0.00833333377 0
0.0199999996 -0.00833333377 0
0.0166666675 -0.00833333377 0
0.0133333337 -0.00833333377 0
0.00999999978 -0.00833333377 0
0.00666666683 -0.00833333377 0
0.00333333341 -0.00833333377 0
0 -0.00833333377 0
0.100000001 -0.0116666667 0
0.0966666639 -0.0116666667 0
0.0933333337 -0.0116666667 0
0.0900000036 -0.0116666667 0
0.086666666 -0.0116666667 0
0.0833333358 -0.0116666667 0
0.0799999982 -0.0116666667 0
0.0766666681 -0.0116666667 0
0.0733333305 -0.0116666667 0
0.0700000003 -0.0116666667 0
0.0666666701 -0.0116666667 0
0.0633333325 -0.0116666667 0
0.0599999987 -0.0116666667 0
0.0566666685 -0.0116666667 0
0.0533333346 -0.0116666667 0
0.0500000007 -0.0116666667 0
0.0466666669 -0.0116666667 0
0.043333333 -0.0116666667 0
0.0399999991 -0.0116666667 0
0.0366666652 -0.0116666667 0
0.0333333351 -0.0116666667 0
0.0299999993 -0.0116666667 0
0.0266666673 -0.0116666667 0
0.0233333334 -0.0116666667 0
0.0199999996 -0.0116666667 0
0.0166666675 -0.0116666667 0
0.0133333337 -0.0116666667 0
0.00999999978 -0.0116666667 0
0.00666666683 -0.0116666667 0
0.00333333341 -0.0116666667 0
0 -0.0116666667 0
0.100000001 -0.0149999997 0
0.0966666639 -0.0149999997 0
0.0933333337 -0.0149999997 0
0.0900000036 -0.0149999997 0
0.086666666 -0.0149999997 0
0.0833333358 -0.0149999997 0
0.0799999982 -0.0149999997 0
0.0766666681 -0.0149999997 0
0.0733333305 -0.0149999997 0
0.0700000003 -0.0149999997 0
0.0666666701 -0.0149999997 0
0.0633333325 -0.0149999997 0
0.0599999987 -0.0149999997 0
0.0566666685 -0.0149999997 0
0.0533333346 -0.0149999997 0
0.0500000007 -0.0149999997 0
0.0466666669 -0.0149999997 0
0.043333333 -0.0149999997 0
0.0399999991 -0.0149999997 0
0.0366666652 -0.0149999997 0
0.0333333351 -0.0149999997 0
0.0299999993 -0.0149999997 0
0.0266666673 -0.0149999997 0
0.0233333334 -0.0149999997 0
0.0199999996 -0.0149999997 0
0.0166666675 -0.0149999997 0
0.0133333337 -0.0149999997 0
0.00999999978 -0.0149999997 0
0.00666666683 -0.0149999997 0
0.00333333341 -0.0149999997 0
0 -0.0149999997 0
0.100000001 -0.0183333326 0
0.0966666639 -0.0183333326 0
0.0933333337 -0.0183333326 0
0.0900000036 -0.0183333326 0
0.086666666 -0.0183333326 0
0.0833333358 -0.0183333326 0
0.0799999982 -0.0183333326 0
0.0766666681 -0.0183333326 0
0.0733333305 -0.0183333326 0
0.0700000003 -0.0183333326 0
0.0666666701 -0.0183333326 0
0.0633333325 -0.0183333326 0
0.0599999987 -0.0183333326 0
0.0566666685 -0.0183333326 0
0.0533333346 -0.0183333326 0
0.0500000007 -0.0183333326 0
0.0466666669 -0.0183333326 0
0.043333333 -0.0183333326 0
0.0399999991 -0.0183333326 0
0.0366666652 -0.0183333326 0
0.0333333351 -0.0183333326 0
0.0299999993 -0.0183333326 0
0.0266666673 -0.0183333326 0
0.0233333334 -0.0183333326 0
0.0199999996 -0.0183333326 0
0.0166666675 -0.0183333326 0
0.0133333337 -0.0183333326 0
0.00999999978 -0.0183333326 0
0.00666666683 -0.0183333326 0
0.00333333341 -0.0183333326 0
0 -0.0183333326 0
0.100000001 -0.0216666665 0
0.0966666639 -0.0216666665 0
0.0933333337 -0.0216666665 0
0.0900000036 -0.0216666665 0
0.086666666 -0.0216666665 0
0.0833333358 -0.0216666665 0
0.0799999982 -0.0216666665 0
0.0766666681 -0.0216666665 0
0.0733333305 -0.0216666665 0
0.0700000003 -0.0216666665 0
0.0666666701 -0.0216666665 0
0.0633333325 -0.0216666665 0
0.0599999987 -0.0216666665 0
0.0566666685 -0.0216666665 0
0.0533333346 -0.0216666665 0
0.0500000007 -0.0216666665 0
0.0466666669 -0.0216666665 0
0.043333333 -0.0216666665 0
0.0399999991 -0.0216666665 0
0.0366666652 -0.0216666665 0
0.0333333351 -0.0216666665 0
0.0299999993 -0.0216666665 0
0.0266666673 -0.0216666665 0
0.0233333334 -0.0216666665 0
0.0199999996 -0.0216666665 0
0.0166666675 -0.0216666665 0
0.0133333337 -0.0216666665 0
0.00999999978 -0.0216666665 0
0.00666666683 -0.0216666665 0
0.00333333341 -0.0216666665 0
0 -0.0216666665 0
0.100000001 -0.0250000004 0
0.0966666639 -0.0250000004 0
0.0933333337 -0.0250000004 0
0.0900000036 -0.0250000004 0
0.086666666 -0.0250000004 0
0.0833333358 -0.0250000004 0
0.0799999982 -0.0250000004 0
0.0766666681 -0.0250000004 0
0.0733333305 -0.0250000004 0
0.0700000003 -0.0250000004 0
0.0666666701 -0.0250000004 0
0.0633333325 -0.0250000004 0
0.0599999987 -0.0250000004 0
0.0566666685 -0.0250000004 0
0.0533333346 -0.0250000004 0
0.0500000007 -0.0250000004 0
0.0466666669 -0.0250000004 0
0.043333333 -0.0250000004 0
0.0399999991 -0.0250000004 0
0.0366666652 -0.0250000004 0
0.0333333351 -0.0250000004 0
0.0299999993 -0.0250000004 0
0.0266666673 -0.0250000004 0
0.0233333334 -0.0250000004 0
0.0199999996 -0.0250000004 0
0.0166666675 -0.0250000004 0
0.0133333337 -0.0250000004 0
0.00999999978 -0.0250000004 0
0.00666666683 -0.0250000004 0
0.00333333341 -0.0250000004 0
0 -0.0250000004 0
0.100000001 -0.0283333343 0
0.0966666639 -0.0283333343 0
0.0933333337 -0.0283333343 0
0.0900000036 -0.0283333343 0
0.086666666 -0.0283333343 0
0.0833333358 -0.0283333343 0
0.0799999982 -0.0283333343 0
0.0766666681 -0.0283333343 0
0.0733333305 -0.0283333343 0
0.0700000003 -0.0283333343 0
0.0666666701 -0.0283333343 0
0.0633333325 -0.0283333343 0
0.0599999987 -0.0283333343 0
0.0566666685 -0.0283333343 0
0.0533333346 -0.0283333343 0
0.0500000007 -0.0283333343 0
0.0466666669 -0.0283333343 0
0.043333333 -0.0283333343 0
0.0399999991 -0.0283333343 0
0.0366666652 -0.0283333343 0
0.0333333351 -0.0283333343 0
0.0299999993 -0.0283333343 0
0.0266666673 -0.0283333343 0
0.0233333334 -0.0283333343 0
0.0199999996 -0.0283333343 0
0.0166666675 -0.0283333343 0
0.0133333337 -0.0283333343 0
0.00999999978 -0.0283333343 0
0.00666666683 -0.0283333343 0
0.00333333341 -0.0283333343 0
0 -0.0283333343 0
0.100000001 -0.0316666663 0
[...]
POINT_DATA 961
SCALARS Temp float 1
LOOKUP_TABLE default
318.6312061364375
287.11560095644853
262.9301174634038
245.39961025150214
233.41708462072506
225.69788955301752
221.00953708171835
218.32195004281508
216.86539092184574
216.11752540076893
215.75286831317604
215.58359698227324
215.50864786169404
215.47706348604115
215.46480362742898
215.46164476054273
215.46480362651243
215.47706348338744
215.50864790981277
215.58359709902967
215.7528680078448
216.11752562157898
216.86539194354384
218.3219497899564
221.00954053849688
225.6978854703697
233.4170884181013
245.3995998906001
262.9301203617908
287.11563157835707
318.6312059263363
287.1156337177651
254.47281886916562
229.42171353286406
211.26320558949666
198.85094412267773
190.85454418113903
185.99757436283684
183.2131678918308
181.70404368016088
180.92913857474664
180.55127176832178
180.37585662338248
180.29818187097754
180.26544670734208
180.25273940388647
180.2494651233828
180.25273940293633
180.26544670459162
180.2981819208477
180.37585674437977
180.55127145191838
180.9291388035478
181.70404473875905
183.21316762984404
185.99757794403024
190.8545399517455
198.85094805632093
211.26319485721032
229.42171653503053
254.47285058668712
287.1156335001838
262.93012202728835
229.4216834258557
203.70464779303518
185.06186360267208
172.31723685514922
164.10569525503107
159.1173437241029
156.25717214924933
154.70672353240818
153.91045828239865
153.52210447094538
153.34178728379757
153.26192688174427
153.2282644295503
153.2151950292831
153.21182709132904
153.21519502830577
153.22826442672155
153.2619269330217
153.3417874081852
153.52210414572863
153.91045851752781
154.7067246200743
156.25717188008065
159.11734740242252
164.1056909114758
172.31724089434525
185.06185258354506
203.7046508751281
229.42171598548285
262.9301218040334
245.39960013845302
211.26315962539616
185.06184790247326
166.065775780035
153.0777320670664
144.707897993632
139.62237626360965
136.7058480148885
135.12447315985506
134.31212046658695
133.91581661479688
133.73175866225696
133.65021939999974
133.6158401395565
133.60248926120158
133.59904825620865
133.60248926020316
133.6158401366671
133.6502194523609
133.7317587892382
133.9158162828752
134.3121207064976
135.12447426933312
136.70584774033935
139.62238001394633
144.70789356581645
153.07773618372426
166.06576455121555
185.0618510427757
211.26319279668417
245.39959991115063
233.41708878688894
198.85091250150728
172.31723627909204
153.07774768528844
139.92117389224606
131.44111855680555
126.28749759464449
123.33119279245656
121.72782468047748
120.90394069595973
120.50189197986323
120.31510863865684
120.23233621418866
120.19742628530017
120.18386557400422
120.1803698580233
120.18386557298999
120.19742628236554
120.23233626734856
120.31510876753362
120.50189164307527
120.90394093931127
121.72782580551848
123.33119251407622
126.28750139561129
131.44111407008938
139.92117806267015
153.07773631161723
172.31723945941803
198.85094609196298
233.41708855687588
225.69788736249646
190.85450568541634
164.10568787623063
144.70790681198991
131.44111153538822
122.88848329392683
117.68968092737576
114.70676420994351
113.08854964108006
112.2568082755967
111.85080715624541
111.66213041346045
111.57849292564454
111.54320723006028
111.52949670635628
111.52596172303598
111.52949670533067
111.54320722709332
111.57849297936676
111.66213054365895
111.85080681609193
112.25680852130414
113.0885507766684
114.7067639289732
117.68968476205953
122.88847876825079
131.44111574108118
144.7078953438371
164.105691082521
190.8545395467285
225.6978871307803
221.00954079828006
185.99754181022266
159.11734260568684
139.62239154685457
126.28749704338477
117.68968749181813
112.46251247899691
109.46272443359645
107.83500099389647
106.99817290472699
106.58958464127761
106.39965454908105
106.31543798620162
106.27989801846066
106.26608515256483
106.26252318168287
106.26608515153119
106.27989801547169
106.3154380403021
106.39965468015824
106.58958429890771
106.9981731519679
107.83500213627077
109.46272415096466
112.46251633494383
117.68968294176089
126.28750127094197
139.622380020505
159.11734582787298
185.99757583661355
221.00954056555972
218.32195057302297
183.21313193666552
156.2571676259532
136.70585987448132
123.33118872381624
114.70676724783664
109.46272086608575
106.4527945949576
104.81929216665841
103.97933558707423
103.56913641402805
103.37841605443073
103.29382975757416
103.25812545482813
103.24424573574395
103.24066601590133
103.2442457347051
103.25812545182484
103.29382981191753
103.37841618606463
103.56913607026871
103.97933583526402
104.81929331317791
106.45279431131422
109.46272473473584
114.70676268333688
123.33119296419159
136.70584831425293
156.25717085733135
183.21316605804884
218.32195033974634
216.86539246266614
181.70400871690734
154.7067200772657
135.1244861354686
121.72782171740042
113.08855380731447
107.83499854948951
104.81929330057724
103.1824562533459
102.34067097406891
101.9295174425736
101.73832242904763
101.65351097977121
101.617705257845
101.60378379345389
101.60019290798927
101.60378379241197
101.61770525483283
101.65351103426322
101.7383225610178
101.92951709798501
102.34067122281711
103.18245740227051
104.81929301634919
107.83500242533566
113.08854923470818
121.72782596489148
135.12447455657548
154.70672331367277
181.70404288998247
216.86539222909897
216.11752570324987
180.92910229995894
153.9104535049176
134.31213210707187
120.90393636529149
112.25681106792189
106.9981690717256
103.97933533093908
102.34066957974726
101.49786757211147
101.08617576953449
100.89470907437807
100.80976682716391
100.77390133238933
100.75995495161138
100.75635734835829
100.75995495056755
100.7739013293719
100.80976688174289
100.89470920654185
101.08617542447442
101.4978678211724
102.34067072999858
103.97933504638995
106.99817295144176
112.25680649099802
120.90394061652886
134.31212051842974
153.91045674393234
180.92913649968884
216.11752546953974
215.75286831034217
180.55123516321174
153.52209936629166
133.91582792817772
120.50188731047778
111.8508096097568
106.58958046397008
103.56913581403192
101.92951570285655
101.08617542451778
100.67419433576934
100.4825793466634
100.39756457618776
100.36166542898003
100.34770483090264
100.34410336204003
100.34770482985766
100.3616654259596
100.39756463081527
100.48257947893345
100.67419399045382
101.08617567374553
101.92951685380456
103.56913552931498
106.5895843456655
111.85080503064684
120.50189156358985
133.91581633469755
153.52210260659095
180.5512693759959
215.75286807656562
215.5835973003075
180.37582034428272
153.3417825199962
133.73177032674127
120.31510432230631
111.66213322512215
106.39965073067474
103.37841581569876
101.73832105111836
100.89470909207508
100.48257970978055
100.29088747077404
100.205834299707
100.16991704776443
100.15594869347635
100.15234509723348
100.15594869243084
100.16991704474242
100.2058343543603
100.29088760309986
100.48257936433279
100.8947093413877
101.73832220241519
103.37841553089837
106.39965461333455
111.6621286449581
120.31510857631157
133.73175873097506
153.3417857608981
180.3758545631534
215.5835970665017
215.50864813209074
180.29814553962305
153.26192206678581
133.65023101371193
120.2323318448571
111.57849568450911
106.3154341139112
103.29382946515216
101.65350954784894
100.80976679099524
100.39756488546284
100.20583424577369
100.1207616661096
100.0848351138758
100.0708627183546
100.06725800382885
100.0708627173087
100.08483511085294
100.1207617207761
100.20583437812736
100.39756453994981
100.80976704034892
101.65351069931219
103.29382918031207
106.31543799701907
111.57849110386034
120.23233609926824
133.6502194169155
153.2619253079571
180.29817976120094
215.5086478982723
215.47706371380764
180.26541033058285
153.22825956898456
133.6158517073118
120.19742186867897
111.5432099414423
106.27989409802437
103.2581251142242
101.61770377752846
100.7739012478392
100.36166568985955
100.1699169453791
100.08483506541648
100.0489039854842
100.03492959523898
100.03132432399578
100.03492959419296
100.0489039824608
100.08483512008927
100.1699170777459
100.36166534431592
100.7739014972118
101.61770492906723
103.25812482936615
106.27989798132998
111.54320536058154
120.1974261232655
133.61584011007358
153.2282628102705
180.26544455330637
215.47706347998428
215.464803861099
180.25270303276955
153.2151901749406
133.60250083555576
120.18386116383607
111.52949942438535
106.26608123869228
103.24424540180836
101.60378231979237
100.75995487376541
100.34770509850533
100.15594859780356
100.07086267661168
100.03492960195877
100.0209543223721
100.01734880108697
100.02095432132603
100.03492959893518
100.07086273128705
100.15594873017594
100.34770475294863
100.75995512314593
101.60378347136233
103.24424511694298
106.26608512207797
111.52949484343966
120.18386541849219
133.60248923814348
153.21519341627146
180.25273725593945
215.46480362727385
215.4616449986359
180.24942875672764
153.2118222416846
133.59905983542575
120.18036545273064
111.52596444602761
106.26251927277599
103.24066568697567
101.60019143934439
100.75635727554844
100.3441036346876
100.15234500660459
100.06725796713202
100.03132433576316
100.0173488061348
100.0137432142323
100.01734880508867
100.03132433273943
100.06725802180817
100.1523451389785
100.34410328912737
100.75635752493106
101.60019259092265
103.24066540210822
106.26252315618284
111.52595986505962
120.18036970740482
133.5990482379682
153.21182548302713
180.24946298001294
215.46164476481036
215.4648038633899
180.252703035144
153.21519017738277
133.60250083805056
120.18386116637014
111.52949942694745
106.26608124127358
103.24424540440224
101.60378232239404
100.75995487637175
100.34770510111436
100.15594860041398
100.07086267922281
100.03492960457032
100.02095432498388
100.01734880369878
100.02095432393769
100.03492960154665
100.07086273389824
100.15594873278634
100.34770475555764
100.75995512575214
101.60378347396384
103.24424511953669
106.26608512465923
111.52949484600174
120.18386542102621
133.60248924063833
153.21519341871365
180.25273725831414
215.46480362956476
215.47706371978114
180.2654103367742
153.2282595753515
133.61585171381478
120.19742187528294
111.543209948118
106.27989410474864
103.2581251209801
101.6177037843039
100.77390125462624
100.36166569665305
100.1699169521761
100.08483507221534
100.04890399228395
100.03492960203906
100.03132433079595
100.03492960099298
100.04890398926047
100.08483512688807
100.16991708454297
100.36166535110937
100.77390150399863
101.61770493584244
103.25812483612187
106.27989798805417
111.5432053672572
120.19742612986933
133.61584011657658
153.22826281663737
180.26544455949755
215.47706348595779
215.5086481464316
180.2981455544858
153.2619220820677
133.65023102931633
120.23233186069896
111.57849570051805
106.3154341300324
103.29382948134534
101.65350956408616
100.80976680725816
100.39756490173998
100.20583426205847
100.12076168239825
100.08483513016627
100.07086273464576
100.06725802012022
100.07086273359987
100.08483512714326
100.12076173706471
100.20583439441205
100.3975645562269
100.80976705661162
101.65351071554915
103.29382919650504
106.31543801314015
111.5784911198692
120.23233611511004
133.65021943251966
153.26192532323867
180.29817977606345
215.50864791261307
215.58359733654092
180.37582038183194
153.34178255859706
133.7317703661464
120.31510436229888
111.66213326552415
106.39965077134877
103.37841585654512
101.73832109206872
100.89470913308517
100.48257975082339
100.2908875118341
100.20583434077554
100.169917088837
100.1559487345506
100.15234513830818
100.15594873350503
100.16991708581494
100.20583439542871
100.29088764415972
100.48257940537542
100.89470938239751
101.73832224336526
103.37841557174441
106.39965465400843
111.66212868536006
120.31510861630402
133.73175877038
153.34178579949864
180.37585460070247
215.5835971027347
215.7528685322985
180.55123539321494
153.5220996026962
133.9158281694485
120.50188755527697
111.8508098569933
106.58958071280952
103.56913606387488
101.92951595329741
101.086175675298
100.67419458673301
100.48257959772184
100.39756482729284
100.3616656801068
100.34770508203862
100.34410361317849
100.34770508099366
100.36166567708625
100.39756488192025
100.48257972999177
100.67419424141733
101.08617592452548
101.92951710424524
103.56913577915779
106.58958459450493
111.85080527788331
120.50189180838889
133.9158165759682
153.52210284299542
180.55126960599873
215.75286829852186
216.11752557430196
180.92910216634206
153.91045336759856
134.3121319669508
120.90393622314951
112.25681092439297
106.99816892729118
103.97933518594263
102.34066943441897
101.49786742659657
101.08617562391964
100.89470892871219
100.80976668147312
100.77390118668689
100.75995480590417
100.75635720264971
100.7599548048603
100.77390118366951
100.809766736052
100.8947090608759
101.0861752788595
101.49786767565739
102.34067058467016
103.97933490139344
106.99817280700736
112.25680634746902
120.90394047438704
134.31212037830863
153.91045660661337
180.9291363660719
216.1175253405918
216.86539335082776
181.7040096371483
154.7067210227808
135.12448709995246
121.72782269542196
113.08855479451337
107.83499954259489
104.81929429729168
103.18245725215532
102.34067197403424
101.92951844314618
101.73832342992421
101.65351198079298
101.61770625893254
101.60378479456878
101.60019390911154
101.60378479352691
101.61770625592047
101.65351203528509
101.73832356189448
101.92951809855771
102.34067222278252
103.18245840107981
104.81929401306367
107.83500341844092
113.08855022190706
121.72782694291304
135.12447552105937
154.7067242591879
181.70404381022345
216.8653931172608
218.3219500666711
183.21313141204865
156.25716708699392
136.70585932480563
123.33118816653435
114.70676668543216
109.46272030040907
106.4527940272983
104.81929159785892
103.9793350176515
103.56913584428126
103.3784154845234
103.29382918759094
103.25812488481088
103.24424516571275
103.2406654458665
103.24424516467418
103.2581248818078
103.29382924193455
103.3784156161575
103.56913550052221
103.97933526584143
104.81929274437836
106.4527937436549
109.46272416905917
114.70676212093231
123.33119240690968
136.70584776457733
156.2571703183723
183.21316553343192
218.32194983339446
221.00954487127345
185.9975460298147
159.1173469397344
139.62239596577945
126.28750152199112
117.68969201017616
112.46251702242971
109.46272899201324
107.83500556080347
106.99817747620133
106.58958921508845
106.39965912403058
106.31544256168023
106.27990259417304
106.26608972837175
106.26252775751485
106.26608972733834
106.27990259118431
106.31544261578092
106.39965925510796
106.58958887271869
106.9981777234423
107.8350067031778
109.46272870938135
112.46252087837642
117.68968746011885
126.28750574954813
139.62238443942994
159.11735016192034
185.9975800562056
221.00954463855302
225.69788904738076
190.8545074308285
164.10568966866344
144.70790863906234
131.44111338661915
122.88848516109472
117.68968280448742
114.70676609292649
113.0885515273476
112.25681016360762
111.85080904513606
111.662132302774
111.57849481515164
111.54320911965186
111.52949859598176
111.52596361267035
111.52949859495621
111.5432091166851
111.57849486887412
111.66213243297251
111.85080870498268
112.25681040931515
113.08855266293588
114.70676581195609
117.68968663917079
122.88848063541839
131.441117592312
144.70789717090952
164.10569287495383
190.85454129214054
225.6978888156646
233.41708353656279
198.8509070627411
172.3172306942897
153.07774199324697
139.92116812571192
131.4411127413625
126.28749174885057
123.33118692884958
121.72781880697056
120.90393481723419
120.50188609852377
120.31510275607029
120.23233033103472
120.19742040190073
120.18385969050735
120.1803639745009
120.18385968949309
120.19742039896633
120.2323303841947
120.31510288494714
120.50188576173585
120.90393506058581
121.7278199320114
123.33118665046891
126.28749554981714
131.441108254646
139.92117229613578
153.07773061957562
172.3172338746156
198.85094065319691
233.4170833065496
245.39960837297227
211.26316815506274
185.06185666006232
166.06578470421098
153.07774110628972
144.7079071078756
139.62238542404882
136.70585720221126
135.124482361984
134.31212967644703
133.91582582849242
133.73176787776438
133.65022861632335
133.61584935623
133.6024984780128
133.59905747305578
133.60249847701448
133.6158493533406
133.65022866868455
133.7317680047456
133.91582549657082
134.31212991635758
135.1244834714617
136.70585692766176
139.62238917438484
144.70790268005945
153.07774522294724
166.06577347539147
185.06185980036452
211.26320132635016
245.39960814566984
262.9301145838871
229.42167571592438
203.7046398778103
185.06185553791303
172.31722868755813
164.10568702072084
159.1173354489418
156.25716385046303
154.70671522069694
153.9104499639855
153.52209614923134
153.34177896053558
153.26191855778987
153.2282561053011
153.2151867049185
153.21181876693458
153.21518670394133
153.22825610247256
153.26191860906735
153.3417790849232
153.52209582401454
153.91045019911462
154.70671630836287
156.25716358129392
159.11733912726095
164.10568267716494
172.31723272675373
185.06184451878553
203.70464295990283
229.42170827555145
262.9301143606319
287.11565933494603
254.47284540288933
229.4217407710383
211.26323333932996
198.8509722231343
190.85457250814878
185.99760282791627
183.21319643635525
181.7040722679141
180.9291671847891
180.55130038927948
180.37588524942907
180.29821049928742
180.26547533660988
180.25276803352725
180.24949375312
180.25276803257734
180.2654753338594
180.29821054915772
180.37588537042654
180.55130007287613
180.92916741359014
181.704073326512
183.21319617436825
185.99760640910918
190.8545682787549
198.85097615677688
211.26322260704336
229.42174377320396
254.47287712040955
287.1156591173645
318.63120602018427
287.1156008360588
262.9301173398818
245.39961012575014
233.41708449348366
225.6978894248431
221.00953695299557
218.32194991378958
216.86539079266305
216.11752527150912
215.75286818388068
215.58359685296216
215.50864773237615
215.4770633567208
215.46480349810759
215.4616446312212
215.4648034971912
215.47706335406716
215.50864778049512
215.58359696971849
215.75286787854924
216.11752549231915
216.86539181436106
218.32194966093067
221.00954040977373
225.69788534219484
233.41708829085934
245.39959976484778
262.93012023826833
287.1156314579671
318.6312058100826

