# vtk DataFile Version 2.0
Unstructured Grid Example
ASCII
DATASET UNSTRUCTURED_GRID

POINTS 961 float
0.100000001 0.00499999989 0
0.0966666639 0.00499999989 0
0.0933333337 0.00499999989 0
0.0900000036 0.00499999989 0
0.086666666 0.00499999989 0
0.0833333358 0.00499999989 0
0.0799999982 0.00499999989 0
0.0766666681 0.00499999989 0
0.0733333305 0.00499999989 0
0.0700000003 0.00499999989 0
0.0666666701 0.00499999989 0
0.0633333325 0.00499999989 0
0.0599999987 0.00499999989 0
0.0566666685 0.00499999989 0
0.0533333346 0.00499999989 0
0.0500000007 0.00499999989 0
0.0466666669 0.00499999989 0
0.043333333 0.00499999989 0
0.0399999991 0.00499999989 0
0.0366666652 0.00499999989 0
0.0333333351 0.00499999989 0
0.0299999993 0.00499999989 0
0.0266666673 0.00499999989 0
0.0233333334 0.00499999989 0
0.0199999996 0.00499999989 0
0.0166666675 0.00499999989 0
0.0133333337 0.00499999989 0
0.00999999978 0.00499999989 0
0.00666666683 0.00499999989 0
0.00333333341 0.00499999989 0
0 0.00499999989 0
0.100000001 0.00166666671 0
0.0966666639 0.00166666671 0
0.0933333337 0.00166666671 0
0.0900000036 0.00166666671 0
0.086666666 0.00166666671 0
0.0833333358 0.00166666671 0
0.0799999982 0.00166666671 0
0.0766666681 0.00166666671 0
0.0733333305 0.00166666671 0
0.0700000003 0.00166666671 0
0.0666666701 0.00166666671 0
0.0633333325 0.00166666671 0
0.0599999987 0.00166666671 0
0.0566666685 0.00166666671 0
0.0533333346 0.00166666671 0
0.0500000007 0.00166666671 0
0.0466666669 0.00166666671 0
0.043333333 0.00166666671 0
0.0399999991 0.00166666671 0
0.0366666652 0.00166666671 0
0.0333333351 0.00166666671 0
0.0299999993 0.00166666671 0
0.0266666673 0.00166666671 0
0.0233333334 0.00166666671 0
0.0199999996 0.00166666671 0
0.0166666675 0.00166666671 0
0.0133333337 0.00166666671 0
0.00999999978 0.00166666671 0
0.00666666683 0.00166666671 0
0.00333333341 0.00166666671 0
0 0.00166666671 0
0.100000001 -0.00166666671 0
0.0966666639 -0.00166666671 0
0.0933333337 -0.00166666671 0
0.0900000036 -0.00166666671 0
0.086666666 -0.00166666671 0
0.0833333358 -0.00166666671 0
0.0799999982 -0.00166666671 0
0.0766666681 -0.00166666671 0
0.0733333305 -0.00166666671 0
0.0700000003 -0.00166666671 0
0.0666666701 -0.00166666671 0
0.0633333325 -0.00166666671 0
0.0599999987 -0.00166666671 0
0.0566666685 -0.00166666671 0
0.0533333346 -0.00166666671 0
0.0500000007 -0.00166666671 0
0.0466666669 -0.00166666671 0
0.043333333 -0.00166666671 0
0.0399999991 -0.00166666671 0
0.0366666652 -0.00166666671 0
0.0333333351 -0.00166666671 0
0.0299999993 -0.00166666671 0
0.0266666673 -0.00166666671 0
0.0233333334 -0.00166666671 0
0.0199999996 -0.00166666671 0
0.0166666675 -0.00166666671 0
0.0133333337 -0.00166666671 0
0.00999999978 -0.00166666671 0
0.00666666683 -0.00166666671 0
0.00333333341 -0.00166666671 0
0 -0.00166666671 0
0.100000001 -0.00499999989 0
0.0966666639 -0.00499999989 0
0.0933333337 -0.00499999989 0
0.0900000036 -0.00499999989 0
0.086666666 -0.00499999989 0
0.0833333358 -0.00499999989 0
0.0799999982 -0.00499999989 0
0.0766666681 -0.00499999989 0
0.0733333305 -0.00499999989 0
0.0700000003 -0.00499999989 0
0.0666666701 -0.00499999989 0
0.0633333325 -0.00499999989 0
0.0599999987 -0.00499999989 0
0.0566666685 -0.00499999989 0
0.0533333346 -0.00499999989 0
0.0500000007 -0.00499999989 0
0.0466666669 -0.00499999989 0
0.043333333 -0.00499999989 0
0.0399999991 -0.00499999989 0
0.0366666652 -0.00499999989 0
0.0333333351 -0.00499999989 0
0.0299999993 -0.00499999989 0
0.0266666673 -0.00499999989 0
0.0233333334 -0.00499999989 0
0.0199999996 -0.00499999989 0
0.0166666675 -0.00499999989 0
0.0133333337 -0.00499999989 0
0.00999999978 -0.00499999989 0
0.00666666683 -0.00499999989 0
0.00333333341 -0.00499999989 0
0 -0.00499999989 0
0.100000001 -0.00833333377 0
0.0966666639 -0.00833333377 0
0.0933333337 -0.00833333377 0
0.0900000036 -0.00833333377 0
0.086666666 -0.00833333377 0
0.0833333358 -0.00833333377 0
0.0799999982 -0.00833333377 0
0.0766666681 -0.00833333377 0
0.0733333305 -0.00833333377 0
0.0700000003 -0.00833333377 0
0.0666666701 -0.00833333377 0
0.0633333325 -0.00833333377 0
0.0599999987 -0.00833333377 0
0.0566666685 -0.00833333377 0
0.0533333346 -0.00833333377 0
0.0500000007 -0.00833333377 0
0.0466666669 -0.00833333377 0
0.043333333 -0.00833333377 0
0.0399999991 -0.00833333377 0
0.0366666652 -0.00833333377 0
0.0333333351 -0.00833333377 0
0.0299999993 -0.00833333377 0
0.0266666673 -0.00833333377 0
0.0233333334 -0.00833333377 0
0.0199999996 -0.00833333377 0
0.0166666675 -0.00833333377 0
0.0133333337 -0.00833333377 0
0.00999999978 -0.00833333377 0
0.00666666683 -0.00833333377 0
0.00333333341 -0.00833333377 0
0 -0.00833333377 0
0.100000001 -0.0116666667 0
0.0966666639 -0.0116666667 0
0.0933333337 -0.0116666667 0
0.0900000036 -0.0116666667 0
0.086666666 -0.0116666667 0
0.0833333358 -0.0116666667 0
0.0799999982 -0.0116666667 0
0.0766666681 -0.0116666667 0
0.0733333305 -0.0116666667 0
0.0700000003 -0.0116666667 0
0.0666666701 -0.0116666667 0
0.0633333325 -0.0116666667 0
0.0599999987 -0.0116666667 0
0.0566666685 -0.0116666667 0
0.0533333346 -0.0116666667 0
0.0500000007 -0.0116666667 0
0.0466666669 -0.0116666667 0
0.043333333 -0.0116666667 0
0.0399999991 -0.0116666667 0
0.0366666652 -0.0116666667 0
0.0333333351 -0.0116666667 0
0.0299999993 -0.0116666667 0
0.0266666673 -0.0116666667 0
0.0233333334 -0.0116666667 0
0.0199999996 -0.0116666667 0
0.0166666675 -0.0116666667 0
0.0133333337 -0.0116666667 0
0.00999999978 -0.0116666667 0
0.00666666683 -0.0116666667 0
0.00333333341 -0.0116666667 0
0 -0.0116666667 0
0.100000001 -0.0149999997 0
0.0966666639 -0.0149999997 0
0.0933333337 -0.0149999997 0
0.0900000036 -0.0149999997 0
0.086666666 -0.0149999997 0
0.0833333358 -0.0149999997 0
0.0799999982 -0.0149999997 0
0.0766666681 -0.0149999997 0
0.0733333305 -0.0149999997 0
0.0700000003 -0.0149999997 0
0.0666666701 -0.0149999997 0
0.0633333325 -0.0149999997 0
0.0599999987 -0.0149999997 0
0.0566666685 -0.0149999997 0
0.0533333346 -0.0149999997 0
0.0500000007 -0.0149999997 0
0.0466666669 -0.0149999997 0
0.043333333 -0.0149999997 0
0.0399999991 -0.0149999997 0
0.0366666652 -0.0149999997 0
0.0333333351 -0.0149999997 0
0.0299999993 -0.0149999997 0
0.0266666673 -0.0149999997 0
0.0233333334 -0.0149999997 0
0.0199999996 -0.0149999997 0
0.0166666675 -0.0149999997 0
0.0133333337 -0.0149999997 0
0.00999999978 -0.0149999997 0
0.00666666683 -0.0149999997 0
0.00333333341 -0.0149999997 0
0 -0.0149999997 0
0.100000001 -0.0183333326 0
0.0966666639 -0.0183333326 0
0.0933333337 -0.0183333326 0
0.0900000036 -0.0183333326 0
0.086666666 -0.0183333326 0
0.0833333358 -0.0183333326 0
0.0799999982 -0.0183333326 0
0.0766666681 -0.0183333326 0
0.0733333305 -0.0183333326 0
0.0700000003 -0.0183333326 0
0.0666666701 -0.0183333326 0
0.0633333325 -0.0183333326 0
0.0599999987 -0.0183333326 0
0.0566666685 -0.0183333326 0
0.0533333346 -0.0183333326 0
0.0500000007 -0.0183333326 0
0.0466666669 -0.0183333326 0
0.043333333 -0.0183333326 0
0.0399999991 -0.0183333326 0
0.0366666652 -0.0183333326 0
0.0333333351 -0.0183333326 0
0.0299999993 -0.0183333326 0
0.0266666673 -0.0183333326 0
0.0233333334 -0.0183333326 0
0.0199999996 -0.0183333326 0
0.0166666675 -0.0183333326 0
0.0133333337 -0.0183333326 0
0.00999999978 -0.0183333326 0
0.00666666683 -0.0183333326 0
0.00333333341 -0.0183333326 0
0 -0.0183333326 0
0.100000001 -0.0216666665 0
0.0966666639 -0.0216666665 0
0.0933333337 -0.0216666665 0
0.0900000036 -0.0216666665 0
0.086666666 -0.0216666665 0
0.0833333358 -0.0216666665 0
0.0799999982 -0.0216666665 0
0.0766666681 -0.0216666665 0
0.0733333305 -0.0216666665 0
0.0700000003 -0.0216666665 0
0.0666666701 -0.0216666665 0
0.0633333325 -0.0216666665 0
0.0599999987 -0.0216666665 0
0.0566666685 -0.0216666665 0
0.0533333346 -0.0216666665 0
0.0500000007 -0.0216666665 0
0.0466666669 -0.0216666665 0
0.043333333 -0.0216666665 0
0.0399999991 -0.0216666665 0
0.0366666652 -0.0216666665 0
0.0333333351 -0.0216666665 0
0.0299999993 -0.0216666665 0
0.0266666673 -0.0216666665 0
0.0233333334 -0.0216666665 0
0.0199999996 -0.0216666665 0
0.0166666675 -0.0216666665 0
0.0133333337 -0.0216666665 0
0.00999999978 -0.0216666665 0
0.00666666683 -0.0216666665 0
0.00333333341 -0.0216666665 0
0 -0.0216666665 0
0.100000001 -0.0250000004 0
0.0966666639 -0.0250000004 0
0.0933333337 -0.0250000004 0
0.0900000036 -0.0250000004 0
0.086666666 -0.0250000004 0
0.0833333358 -0.0250000004 0
0.0799999982 -0.0250000004 0
0.0766666681 -0.0250000004 0
0.0733333305 -0.0250000004 0
0.0700000003 -0.0250000004 0
0.0666666701 -0.0250000004 0
0.0633333325 -0.0250000004 0
0.0599999987 -0.0250000004 0
0.0566666685 -0.0250000004 0
0.0533333346 -0.0250000004 0
0.0500000007 -0.0250000004 0
0.0466666669 -0.0250000004 0
0.043333333 -0.0250000004 0
0.0399999991 -0.0250000004 0
0.0366666652 -0.0250000004 0
0.0333333351 -0.0250000004 0
0.0299999993 -0.0250000004 0
0.0266666673 -0.0250000004 0
0.0233333334 -0.0250000004 0
0.0199999996 -0.0250000004 0
0.0166666675 -0.0250000004 0
0.0133333337 -0.0250000004 0
0.00999999978 -0.0250000004 0
0.00666666683 -0.0250000004 0
0.00333333341 -0.0250000004 0
0 -0.0250000004 0
0.100000001 -0.0283333343 0
0.0966666639 -0.0283333343 0
0.0933333337 -0.0283333343 0
0.0900000036 -0.0283333343 0
0.086666666 -0.0283333343 0
0.0833333358 -0.0283333343 0
0.0799999982 -0.0283333343 0
0.0766666681 -0.0283333343 0
0.0733333305 -0.0283333343 0
0.0700000003 -0.0283333343 0
0.0666666701 -0.0283333343 0
0.0633333325 -0.0283333343 0
0.0599999987 -0.0283333343 0
0.0566666685 -0.0283333343 0
0.0533333346 -0.0283333343 0
0.0500000007 -0.0283333343 0
0.0466666669 -0.0283333343 0
0.043333333 -0.0283333343 0
0.0399999991 -0.0283333343 0
0.0366666652 -0.0283333343 0
0.0333333351 -0.0283333343 0
0.0299999993 -0.0283333343 0
0.0266666673 -0.0283333343 0
0.0233333334 -0.0283333343 0
0.0199999996 -0.0283333343 0
0.0166666675 -0.0283333343 0
0.0133333337 -0.0283333343 0
0.00999999978 -0.0283333343 0
0.00666666683 -0.0283333343 0
0.00333333341 -0.0283333343 0
0 -0.0283333343 0
0.100000001 -0.0316666663 0
[...]
POINT_DATA 961
SCALARS Temp float 1
LOOKUP_TABLE default
177.44492349643065
150.75069223482438
142.233513902832
140.12707327361903
139.6593750887427
139.56160220112582
139.54193152081615
139.5380781825882
139.5373379494636
139.5371978659913
139.53717166775493
139.5371668149511
139.53716592314478
139.53716576037183
139.5371657309913
139.5371657266132
139.53716573099132
139.53716576037178
139.53716592314518
139.53716681495354
139.5371716677399
139.5371978660193
139.5373379498263
139.5380781824398
139.54193153039355
139.56160217118804
139.6593751833856
140.1270725597923
142.23351459775924
150.75071022068977
177.44492599650954
150.75070864697966
123.33081049441276
114.56129062996446
112.38857211068509
111.90569132988762
111.80466542577017
111.78432957153123
111.78034410523016
111.7795782266822
111.7794332454591
111.77940612453766
111.77940109969659
111.77940017610005
111.7794000074957
111.77939997705818
111.77939997252201
111.77939997705808
111.77940000749568
111.77940017610044
111.7794010996991
111.77940612452207
111.77943324548806
111.77957822705747
111.78034410507658
111.78432958143398
111.80466539483113
111.90569142762843
112.38857137415401
114.56129134595788
123.33082898667831
150.75071120126498
142.2335121787016
114.56127178918197
105.6833294049521
103.476234425843
102.98454043518116
102.88149015410218
102.86071767595935
102.85664213938882
102.85585821806687
102.85570970598309
102.85568190567125
102.855676751944
102.85567580416333
102.85567563106466
102.85567559980284
102.85567559514243
102.85567559980282
102.85567563106466
102.85567580416382
102.85567675194662
102.85568190565536
102.85570970601275
102.85585821845109
102.85664213923187
102.8607176860783
102.88149012252964
102.98454053476304
103.47623367705515
105.68333013068228
114.56129047356595
142.23351474040652
140.12706982136086
112.38855143036758
103.47623261278893
101.25552007145619
100.75963770958305
100.65550892356998
100.6344849795386
100.6303543825205
100.62955893182473
100.62940807926039
100.62937981530234
100.62937457138882
100.62937360632965
100.62937342996057
100.62937339808964
100.6293733933364
100.62937339808963
100.62937342996055
100.62937360633009
100.62937457139148
100.62937981528611
100.62940807929056
100.6295589322148
100.63035438236133
100.63448498978445
100.65550889165075
100.75963781007663
101.25551931744627
103.47623334187875
112.38857016915802
140.12707238290602
139.65937244717534
111.90567147219477
102.98453947135715
100.75963856808795
100.26217537399137
100.15756569010347
100.13641638631029
100.13225602175847
100.13145393427621
100.1313016676532
100.13127311212159
100.13126780961767
100.13126683301553
100.1312666544096
100.13126662211344
100.13126661729437
100.13126662211343
100.13126665440952
100.131266833016
100.13126780962034
100.13127311210525
100.1313016676837
100.13145393466951
100.13225602159814
100.13641639662104
100.15756565802313
100.26217547485179
100.7596378123071
102.9845402013637
111.90569022397577
139.65937500858584
139.56159944271596
111.80464544431574
102.881489066938
100.65550965839782
100.15756556532318
100.05278022981932
100.03157767914807
100.02740324041511
100.02659774872085
100.02644470881603
100.02641598553078
100.02641064786164
100.02640966408524
100.02640948404668
100.02640945147117
100.02640944660801
100.02640945147112
100.02640948404655
100.02640966408563
100.02641064786435
100.02641598551438
100.02644470884668
100.02659774911605
100.02740324025412
100.03157768948763
100.05278019767631
100.15756566630392
100.65550890211622
102.88148979716233
111.8046641989619
139.56160200409076
139.5419287887408
111.78430961665069
102.86071661650593
100.63448574259417
100.13641628975363
100.03157770748238
100.01035616581386
100.00617597244553
100.00536893920506
100.00521551987532
100.00518670882211
100.00518135177184
100.00518036386494
100.00518018297073
100.00518015022323
100.00518014533236
100.00518015022305
100.00518018297068
100.0051803638653
100.0051813517746
100.00518670880558
100.0052155199061
100.00536893960098
100.00617597228435
100.01035617616417
100.03157767531889
100.13641639076775
100.63448498618776
102.86071734677847
111.78432837189696
139.54193135010738
139.53807544117552
111.7803241405648
102.85664107005418
100.63035513561502
100.13225591514089
100.0274032586727
100.00617596235178
100.00199375325587
100.00118610864773
100.0010325235387
100.00100367102073
100.00099830421294
100.00099731411431
100.00099713274558
100.00099709989895
100.0009970949917
100.00099709989888
100.00099713274547
100.00099731411473
100.00099830421561
100.00100367100416
100.00103252356942
100.00118610904408
100.0019937530945
100.00617597270549
100.02740322650337
100.13225601616325
100.63035437918002
102.85664180033666
111.78034289593236
139.53807800254063
139.5373352081232
111.7795582620662
102.85585714880588
100.62955968500394
100.13145382773607
100.02659776705961
100.00536892919087
100.00118610872862
100.00037825296648
100.00022460372436
100.00019573362614
100.0001903623565
100.00018937119097
100.00018918957886
100.00018915667916
100.00018915176283
100.0001891566791
100.0001891895788
100.00018937119142
100.00019036235922
100.00019573360956
100.00022460375509
100.00037825336294
100.00118610856717
100.0053689395456
100.02659773488867
100.13145392876037
100.6295589285626
102.85585787909048
111.77957701745761
139.53733776948798
139.53719512420167
111.77941328037318
102.8557086362455
100.62940883195775
100.13130156062549
100.0264447266655
100.00521550937056
100.0010325231286
100.00022460323324
100.00007093208848
100.00004205532748
100.00003668221385
100.00003569057411
100.000035508847
100.00003547592092
100.00003547099992
100.00003547592094
100.00003550884693
100.00003569057458
100.00003668221659
100.00004205531091
100.00007093211921
100.00022460362969
100.0010325229671
100.00521551972544
100.02644469449422
100.13130166165011
100.6294080755152
102.85570936653049
111.77943203576928
139.53719768556633
139.53716892594485
111.77938615942972
102.85568083591195
100.62938056797802
100.13127300507156
100.02641600335802
100.00518669829485
100.00100367058822
100.00019573311266
100.00004205530503
100.00001317628936
100.0000078024888
100.00000681065731
100.00000662888031
100.00000659594211
100.00000659101896
100.00000659594203
100.0000066288803
100.00000681065778
100.00000780249147
100.00001317627282
100.00004205533587
100.00019573350907
100.00100367042675
100.00518670864975
100.02641597118665
100.13127310609637
100.62937981153517
102.85568156619705
111.77940491482673
139.53717148730965
139.53716407315443
111.77938113460239
102.85567568219886
100.629375324079
100.13126770258224
100.02641066570362
100.0051813412593
100.0009983037952
100.00019036185776
100.00003668220629
100.00000780250362
100.00000242847231
100.00000143657049
100.00000125477368
100.00000122183036
100.0000012169062
100.00000122183033
100.00000125477362
100.00000143657098
100.00000242847501
100.00000780248708
100.00003668223702
100.00019036225429
100.0009983036338
100.0051813516143
100.0264106335322
100.13126780360706
100.6293745676361
102.85567641248406
111.77939988999948
139.5371666345193
139.5371631813467
111.7793802110043
102.8556747344168
100.6293743590183
100.13126672597848
100.02640968192556
100.00518035335072
100.00099731369492
100.00018937069069
100.00003569056496
100.00000681067056
100.00000143656885
100.00000044464358
100.00000026283963
100.00000022989427
100.00000022496968
100.00000022989427
100.00000026283958
100.00000044464404
100.00000143657168
100.00000681065396
100.00003569059572
100.00018937108713
100.0009973135335
100.00518036370568
100.02640964975417
100.13126682700324
100.62937360257544
102.85567546470186
111.77939896640149
139.53716574271144
139.5371630185734
111.77938004239968
102.8556745613177
100.62937418264887
100.13126654737226
100.02640950188662
100.00518017245622
100.00099713232582
100.00018918907818
100.0000355088374
100.0000066288932
100.00000125477169
100.00000026283922
100.00000008103287
100.00000004808685
100.00000004316206
100.00000004808679
100.00000008103281
100.00000026283966
100.00000125477439
100.00000662887656
100.00003550886814
100.00018918947463
100.00099713216434
100.00518018281116
100.02640946971518
100.13126664839704
100.62937342620597
102.85567529160281
111.77939879779679
139.5371655799382
139.5371629891929
111.77938001196203
102.8556745300559
100.62937415077795
100.13126651507615
100.02640946931122
100.00518013970868
100.00099709947926
100.00018915617852
100.00003547591139
100.00000659595503
100.00000122182846
100.00000022989406
100.00000004808689
100.00000001514056
100.0000000102158
100.00000001514054
100.00000004808682
100.00000022989431
100.00000122183111
100.0000065959384
100.00003547594216
100.00018915657495
100.00099709931787
100.00518015006365
100.02640943713982
100.13126661610093
100.62937339433506
102.85567526034096
111.77939876735915
139.5371655505577
139.53716298481478
111.77938000742589
102.85567452539544
100.62937414602467
100.13126651025703
100.02640946444808
100.00518013481785
100.00099709457204
100.00018915126226
100.00003547099044
100.00000659103183
100.00000121690434
100.0000002249695
100.0000000431622
100.00000001021586
100.00000000529103
100.00000001021584
100.00000004316205
100.0000002249698
100.00000121690697
100.00000659101522
100.0000354710212
100.00018915165869
100.00099709441062
100.00518014517286
100.02640943227668
100.13126661128184
100.62937338958174
102.85567525568057
111.77939876282305
139.53716554617964
139.53716298919286
111.77938001196203
102.85567453005588
100.62937415077795
100.13126651507609
100.02640946931118
100.00518013970867
100.00099709947926
100.00018915617854
100.00003547591135
100.00000659595504
100.00000122182846
100.00000022989397
100.00000004808689
100.00000001514064
100.00000001021587
100.00000001514054
100.0000000480868
100.00000022989437
100.00000122183114
100.00000659593843
100.00003547594211
100.00018915657493
100.00099709931783
100.0051801500637
100.02640943713982
100.13126661610089
100.62937339433506
102.85567526034097
111.77939876735927
139.53716555055775
139.53716301857347
111.77938004239977
102.85567456131773
100.62937418264892
100.13126654737225
100.02640950188668
100.00518017245625
100.00099713232585
100.00018918907818
100.00003550883746
100.0000066288932
100.00000125477173
100.00000026283931
100.00000008103295
100.00000004808689
100.0000000431621
100.00000004808685
100.00000008103284
100.00000026283969
100.00000125477449
100.00000662887662
100.00003550886817
100.00018918947464
100.00099713216439
100.00518018281119
100.02640946971526
100.13126664839706
100.62937342620599
102.85567529160281
111.77939879779687
139.53716557993826
139.5371631813468
111.77938021100454
102.85567473441701
100.6293743590185
100.13126672597868
100.02640968192567
100.00518035335085
100.00099731369508
100.00018937069086
100.00003569056513
100.00000681067074
100.00000143656911
100.00000044464376
100.00000026283982
100.00000022989441
100.00000022496982
100.00000022989437
100.00000026283972
100.00000044464426
100.0000014365718
100.00000681065417
100.00003569059588
100.00018937108725
100.00099731353365
100.00518036370585
100.02640964975433
100.13126682700349
100.6293736025756
102.85567546470197
111.7793989664016
139.53716574271164
139.53716407315528
111.77938113460324
102.85567568219977
100.62937532407992
100.13126770258312
100.02641066570447
100.0051813412602
100.00099830379614
100.00019036185869
100.00003668220712
100.00000780250453
100.00000242847328
100.00000143657145
100.00000125477456
100.00000122183125
100.00000121690708
100.00000122183121
100.0000012547746
100.00000143657184
100.00000242847597
100.00000780248793
100.00003668223792
100.00019036225515
100.00099830363465
100.00518135161518
100.02641063353313
100.1312678036079
100.62937456763697
102.85567641248485
111.77939989000032
139.53716663452005
139.53716892595637
111.77938615944166
102.85568083592419
100.62938056799044
100.13127300508408
100.02641600337056
100.00518669830744
100.00100367060091
100.00019573312534
100.00004205531775
100.000013176302
100.0000078025015
100.00000681067006
100.00000662889295
100.00000659595477
100.00000659103155
100.00000659595472
100.00000662889286
100.00000681067047
100.00000780250417
100.00001317628546
100.00004205534849
100.00019573352172
100.00100367043943
100.0051867086624
100.02641597119923
100.13127310610884
100.62937981154751
102.85568156620921
111.77940491483852
139.53717148732116
139.5371951241873
111.77941328035833
102.85570863623028
100.62940883194221
100.13130156060983
100.0264447266498
100.00521550935471
100.00103252311287
100.00022460321752
100.00007093207272
100.00004205531177
100.00003668219813
100.00003569055835
100.00003550883119
100.00003547590516
100.00003547098413
100.00003547590505
100.00003550883115
100.00003569055879
100.00003668220083
100.00004205529517
100.00007093210347
100.00022460361399
100.0010325229514
100.00521551970971
100.02644469447849
100.13130166163452
100.62940807549971
102.85570936651526
111.77943203575437
139.5371976855521
139.53733520843156
111.7795582623853
102.85585714913265
100.62955968533562
100.1314538280706
100.02659776739564
100.00536892952762
100.00118610906557
100.0003782533037
100.00022460406154
100.00019573396337
100.00019036269364
100.00018937152814
100.00018918991597
100.0001891570163
100.00018915209999
100.00018915701628
100.00018918991587
100.0001893715286
100.0001903626964
100.00019573394674
100.0002246040923
100.00037825370005
100.00118610890416
100.00536893988229
100.02659773522475
100.13145392909492
100.62955892889435
102.8558578794172
111.77957701777672
139.5373377697964
139.53807544077398
111.78032414014959
102.8566410696294
100.63035513518444
100.13225591470706
100.0274032582373
100.00617596191557
100.00199375281953
100.00118610821134
100.00103252310224
100.00100367058425
100.00099830377644
100.00099731367769
100.000997132309
100.00099709946242
100.00099709455515
100.00099709946238
100.00099713230898
100.0009973136782
100.00099830377917
100.00100367056773
100.001032523133
100.0011861086076
100.00199375265812
100.00617597226936
100.02740322606789
100.13225601572938
100.63035437874943
102.85664179991201
111.7803428955171
139.53807800213914
139.54192879991768
111.7843096282071
102.86071662831458
100.6344857545509
100.13641630178631
100.0315777195485
100.01035617789266
100.00617598452834
100.00536895128904
100.0052155319596
100.00518672090638
100.0051813638561
100.00518037594912
100.00518019505498
100.00518016230738
100.00518015741656
100.00518016230735
100.00518019505493
100.00518037594959
100.00518136385892
100.00518672088991
100.00521553199032
100.005368951685
100.00617598436709
100.01035618824291
100.031577687385
100.13641640280042
100.63448499814454
102.86071735858704
111.78432838345341
139.54193136128413
139.56159945900853
111.80464546115316
102.88148908412073
100.65550967576917
100.15756558278186
100.05278024731153
100.03157769665098
100.02740325792097
100.02659776622737
100.02644472632261
100.02641600303741
100.02641066536835
100.02640968159174
100.02640950155323
100.02640946897779
100.02640946411461
100.02640946897775
100.02640950155319
100.02640968159224
100.02641066537096
100.026416003021
100.02644472635333
100.0265977666225
100.02740325775989
100.03157770699042
100.05278021516855
100.15756568376264
100.65550891948759
102.88148981434502
111.80466421579935
139.5616020203833
139.6593723276812
111.90567134879157
102.98453934563149
100.75963844121299
100.26217524665311
100.15756556261192
100.1364162587754
100.13225589421276
100.13145380672788
100.1313015401043
100.13127298457258
100.13126768206857
100.1312667054664
100.13126652686049
100.1312664945644
100.13126648974529
100.13126649456439
100.1312665268605
100.1312667054669
100.13126768207127
100.13127298455623
100.1313015401348
100.13145380712119
100.13225589405229
100.13641626908613
100.15756553053154
100.26217534751352
100.75963768543211
102.98454007563798
111.90569010057253
139.6593748890917
140.12707044037887
112.38855206906801
103.47623326211558
101.25552072529696
100.75963836493369
100.65550957933772
100.63448563540841
100.63035503841343
100.62955958772268
100.62940873515925
100.62938047120144
100.62937522728791
100.62937426222878
100.62937408585968
100.62937405398881
100.6293740492355
100.62937405398876
100.62937408585965
100.62937426222922
100.62937522729054
100.62938047118517
100.62940873518936
100.62955958811256
100.63035503825405
100.6344856456541
100.6555095474183
100.7596384654272
101.25551997128704
103.4762339912053
112.38857080785831
140.12707300192412
142.23351077979297
114.56127034792827
105.68332794400325
103.47623295782057
102.9845389650897
102.88148868349025
102.86071620522911
102.8566406686332
102.855856747306
102.85570823522114
102.85568043490917
102.85567528118182
102.85567433340113
102.85567416030246
102.85567412904058
102.8556741243802
102.85567412904061
102.8556741603024
102.85567433340164
102.8556752811844
102.85568043489316
102.85570823525083
102.85585674769011
102.85664066847609
102.86071621534786
102.88148865191754
102.98453906467148
103.47623220903263
105.6833286697333
114.56128903231222
142.23351334149785
150.7507234081102
123.3308256714751
114.56130596549627
112.38858749143081
111.90570672149585
111.80468081977835
111.78434496604223
111.78035949984265
111.77959362131477
111.77944864009548
111.77942151917476
111.7794164943338
111.77941557073726
111.779415402133
111.77941537169526
111.77941536715917
111.77941537169532
111.77941540213297
111.77941557073774
111.77941649433637
111.77942151915923
111.77944864012441
111.77959362168997
111.78035949968913
111.78434497594492
111.80468078883924
111.90570681923654
112.38858675489959
114.56130668148941
123.33084416374025
150.75072596239556
177.44492544998988
150.75069422960627
142.2335159020637
140.12707527227175
139.65937708723487
139.56160419959093
139.54193351927597
139.53808018104712
139.53733994792233
139.53719986444997
139.53717366621356
139.53716881340975
139.5371679216034
139.53716775883046
139.53716772944992
139.53716772507184
139.53716772944995
139.5371677588305
139.53716792160387
139.53716881341217
139.53717366619856
139.53719986447797
139.53733994828502
139.53808018089862
139.54193352885326
139.56160416965312
139.6593771818777
140.12707455844495
142.23351659699085
150.75071221547162
177.44492795006866

