# vtk DataFile Version 2.0
Unstructured Grid Example
ASCII
DATASET UNSTRUCTURED_GRID

POINTS 961 float
0.100000001 0.00499999989 0
0.0966666639 0.00499999989 0
0.0933333337 0.00499999989 0
0.0900000036 0.00499999989 0
0.086666666 0.00499999989 0
0.0833333358 0.00499999989 0
0.0799999982 0.00499999989 0
0.0766666681 0.00499999989 0
0.0733333305 0.00499999989 0
0.0700000003 0.00499999989 0
0.0666666701 0.00499999989 0
0.0633333325 0.00499999989 0
0.0599999987 0.00499999989 0
0.0566666685 0.00499999989 0
0.0533333346 0.00499999989 0
0.0500000007 0.00499999989 0
0.0466666669 0.00499999989 0
0.043333333 0.00499999989 0
0.0399999991 0.00499999989 0
0.0366666652 0.00499999989 0
0.0333333351 0.00499999989 0
0.0299999993 0.00499999989 0
0.0266666673 0.00499999989 0
0.0233333334 0.00499999989 0
0.0199999996 0.00499999989 0
0.0166666675 0.00499999989 0
0.0133333337 0.00499999989 0
0.00999999978 0.00499999989 0
0.00666666683 0.00499999989 0
0.00333333341 0.00499999989 0
0 0.00499999989 0
0.100000001 0.00166666671 0
0.0966666639 0.00166666671 0
0.0933333337 0.00166666671 0
0.0900000036 0.00166666671 0
0.086666666 0.00166666671 0
0.0833333358 0.00166666671 0
0.0799999982 0.00166666671 0
0.0766666681 0.00166666671 0
0.0733333305 0.00166666671 0
0.0700000003 0.00166666671 0
0.0666666701 0.00166666671 0
0.0633333325 0.00166666671 0
0.0599999987 0.00166666671 0
0.0566666685 0.00166666671 0
0.0533333346 0.00166666671 0
0.0500000007 0.00166666671 0
0.0466666669 0.00166666671 0
0.043333333 0.00166666671 0
0.0399999991 0.00166666671 0
0.0366666652 0.00166666671 0
0.0333333351 0.00166666671 0
0.0299999993 0.00166666671 0
0.0266666673 0.00166666671 0
0.0233333334 0.00166666671 0
0.0199999996 0.00166666671 0
0.0166666675 0.00166666671 0
0.0133333337 0.00166666671 0
0.00999999978 0.00166666671 0
0.00666666683 0.00166666671 0
0.00333333341 0.00166666671 0
0 0.00166666671 0
0.100000001 -0.00166666671 0
0.0966666639 -0.00166666671 0
0.0933333337 -0.00166666671 0
0.0900000036 -0.00166666671 0
0.086666666 -0.00166666671 0
0.0833333358 -0.00166666671 0
0.0799999982 -0.00166666671 0
0.0766666681 -0.00166666671 0
0.0733333305 -0.00166666671 0
0.0700000003 -0.00166666671 0
0.0666666701 -0.00166666671 0
0.0633333325 -0.00166666671 0
0.0599999987 -0.00166666671 0
0.0566666685 -0.00166666671 0
0.0533333346 -0.00166666671 0
0.0500000007 -0.00166666671 0
0.0466666669 -0.00166666671 0
0.043333333 -0.00166666671 0
0.0399999991 -0.00166666671 0
0.0366666652 -0.00166666671 0
0.0333333351 -0.00166666671 0
0.0299999993 -0.00166666671 0
0.0266666673 -0.00166666671 0
0.0233333334 -0.00166666671 0
0.0199999996 -0.00166666671 0
0.0166666675 -0.00166666671 0
0.0133333337 -0.00166666671 0
0.00999999978 -0.00166666671 0
0.00666666683 -0.00166666671 0
0.00333333341 -0.00166666671 0
0 -0.00166666671 0
0.100000001 -0.00499999989 0
0.0966666639 -0.00499999989 0
0.0933333337 -0.00499999989 0
0.0900000036 -0.00499999989 0
0.086666666 -0.00499999989 0
0.0833333358 -0.00499999989 0
0.0799999982 -0.00499999989 0
0.0766666681 -0.00499999989 0
0.0733333305 -0.00499999989 0
0.0700000003 -0.00499999989 0
0.0666666701 -0.00499999989 0
0.0633333325 -0.00499999989 0
0.0599999987 -0.00499999989 0
0.0566666685 -0.00499999989 0
0.0533333346 -0.00499999989 0
0.0500000007 -0.00499999989 0
0.0466666669 -0.00499999989 0
0.043333333 -0.00499999989 0
0.0399999991 -0.00499999989 0
0.0366666652 -0.00499999989 0
0.0333333351 -0.00499999989 0
0.0299999993 -0.00499999989 0
0.0266666673 -0.00499999989 0
0.0233333334 -0.00499999989 0
0.0199999996 -0.00499999989 0
0.0166666675 -0.00499999989 0
0.0133333337 -0.00499999989 0
0.00999999978 -0.00499999989 0
0.00666666683 -0.00499999989 0
0.00333333341 -0.00499999989 0
0 -0.00499999989 0
0.100000001 -0.00833333377 0
0.0966666639 -0.00833333377 0
0.0933333337 -0.00833333377 0
0.0900000036 -0.00833333377 0
0.086666666 -0.00833333377 0
0.0833333358 -0.00833333377 0
0.0799999982 -0.00833333377 0
0.0766666681 -0.00833333377 0
0.0733333305 -0.00833333377 0
0.0700000003 -0.00833333377 0
0.0666666701 -0.00833333377 0
0.0633333325 -0.00833333377 0
0.0599999987 -0.00833333377 0
0.0566666685 -0.00833333377 0
0.0533333346 -0.00833333377 0
0.0500000007 -0.00833333377 0
0.0466666669 -0.00833333377 0
0.043333333 -0.00833333377 0
0.0399999991 -0.00833333377 0
0.0366666652 -0.00833333377 0
0.0333333351 -0.00833333377 0
0.0299999993 -0.00833333377 0
0.0266666673 -0.00833333377 0
0.0233333334 -0.00833333377 0
0.0199999996 -0.00833333377 0
0.0166666675 -0.00833333377 0
0.0133333337 -0.00833333377 0
0.00999999978 -0.00833333377 0
0.00666666683 -0.00833333377 0
0.00333333341 -0.00833333377 0
0 -0.00833333377 0
0.100000001 -0.0116666667 0
0.0966666639 -0.0116666667 0
0.0933333337 -0.0116666667 0
0.0900000036 -0.0116666667 0
0.086666666 -0.0116666667 0
0.0833333358 -0.0116666667 0
0.0799999982 -0.0116666667 0
0.0766666681 -0.0116666667 0
0.0733333305 -0.0116666667 0
0.0700000003 -0.0116666667 0
0.0666666701 -0.0116666667 0
0.0633333325 -0.0116666667 0
0.0599999987 -0.0116666667 0
0.0566666685 -0.0116666667 0
0.0533333346 -0.0116666667 0
0.0500000007 -0.0116666667 0
0.0466666669 -0.0116666667 0
0.043333333 -0.0116666667 0
0.0399999991 -0.0116666667 0
0.0366666652 -0.0116666667 0
0.0333333351 -0.0116666667 0
0.0299999993 -0.0116666667 0
0.0266666673 -0.0116666667 0
0.0233333334 -0.0116666667 0
0.0199999996 -0.0116666667 0
0.0166666675 -0.0116666667 0
0.0133333337 -0.0116666667 0
0.00999999978 -0.0116666667 0
0.00666666683 -0.0116666667 0
0.00333333341 -0.0116666667 0
0 -0.0116666667 0
0.100000001 -0.0149999997 0
0.0966666639 -0.0149999997 0
0.0933333337 -0.0149999997 0
0.0900000036 -0.0149999997 0
0.086666666 -0.0149999997 0
0.0833333358 -0.0149999997 0
0.0799999982 -0.0149999997 0
0.0766666681 -0.0149999997 0
0.0733333305 -0.0149999997 0
0.0700000003 -0.0149999997 0
0.0666666701 -0.0149999997 0
0.0633333325 -0.0149999997 0
0.0599999987 -0.0149999997 0
0.0566666685 -0.0149999997 0
0.0533333346 -0.0149999997 0
0.0500000007 -0.0149999997 0
0.0466666669 -0.0149999997 0
0.043333333 -0.0149999997 0
0.0399999991 -0.0149999997 0
0.0366666652 -0.0149999997 0
0.0333333351 -0.0149999997 0
0.0299999993 -0.0149999997 0
0.0266666673 -0.0149999997 0
0.0233333334 -0.0149999997 0
0.0199999996 -0.0149999997 0
0.0166666675 -0.0149999997 0
0.0133333337 -0.0149999997 0
0.00999999978 -0.0149999997 0
0.00666666683 -0.0149999997 0
0.00333333341 -0.0149999997 0
0 -0.0149999997 0
0.100000001 -0.0183333326 0
0.0966666639 -0.0183333326 0
0.0933333337 -0.0183333326 0
0.0900000036 -0.0183333326 0
0.086666666 -0.0183333326 0
0.0833333358 -0.0183333326 0
0.0799999982 -0.0183333326 0
0.0766666681 -0.0183333326 0
0.0733333305 -0.0183333326 0
0.0700000003 -0.0183333326 0
0.0666666701 -0.0183333326 0
0.0633333325 -0.0183333326 0
0.0599999987 -0.0183333326 0
0.0566666685 -0.0183333326 0
0.0533333346 -0.0183333326 0
0.0500000007 -0.0183333326 0
0.0466666669 -0.0183333326 0
0.043333333 -0.0183333326 0
0.0399999991 -0.0183333326 0
0.0366666652 -0.0183333326 0
0.0333333351 -0.0183333326 0
0.0299999993 -0.0183333326 0
0.0266666673 -0.0183333326 0
0.0233333334 -0.0183333326 0
0.0199999996 -0.0183333326 0
0.0166666675 -0.0183333326 0
0.0133333337 -0.0183333326 0
0.00999999978 -0.0183333326 0
0.00666666683 -0.0183333326 0
0.00333333341 -0.0183333326 0
0 -0.0183333326 0
0.100000001 -0.0216666665 0
0.0966666639 -0.0216666665 0
0.0933333337 -0.0216666665 0
0.0900000036 -0.0216666665 0
0.086666666 -0.0216666665 0
0.0833333358 -0.0216666665 0
0.0799999982 -0.0216666665 0
0.0766666681 -0.0216666665 0
0.0733333305 -0.0216666665 0
0.0700000003 -0.0216666665 0
0.0666666701 -0.0216666665 0
0.0633333325 -0.0216666665 0
0.0599999987 -0.0216666665 0
0.0566666685 -0.0216666665 0
0.0533333346 -0.0216666665 0
0.0500000007 -0.0216666665 0
0.0466666669 -0.0216666665 0
0.043333333 -0.0216666665 0
0.0399999991 -0.0216666665 0
0.0366666652 -0.0216666665 0
0.0333333351 -0.0216666665 0
0.0299999993 -0.0216666665 0
0.0266666673 -0.0216666665 0
0.0233333334 -0.0216666665 0
0.0199999996 -0.0216666665 0
0.0166666675 -0.0216666665 0
0.0133333337 -0.0216666665 0
0.00999999978 -0.0216666665 0
0.00666666683 -0.0216666665 0
0.00333333341 -0.0216666665 0
0 -0.0216666665 0
0.100000001 -0.0250000004 0
0.0966666639 -0.0250000004 0
0.0933333337 -0.0250000004 0
0.0900000036 -0.0250000004 0
0.086666666 -0.0250000004 0
0.0833333358 -0.0250000004 0
0.0799999982 -0.0250000004 0
0.0766666681 -0.0250000004 0
0.0733333305 -0.0250000004 0
0.0700000003 -0.0250000004 0
0.0666666701 -0.0250000004 0
0.0633333325 -0.0250000004 0
0.0599999987 -0.0250000004 0
0.0566666685 -0.0250000004 0
0.0533333346 -0.0250000004 0
0.0500000007 -0.0250000004 0
0.0466666669 -0.0250000004 0
0.043333333 -0.0250000004 0
0.0399999991 -0.0250000004 0
0.0366666652 -0.0250000004 0
0.0333333351 -0.0250000004 0
0.0299999993 -0.0250000004 0
0.0266666673 -0.0250000004 0
0.0233333334 -0.0250000004 0
0.0199999996 -0.0250000004 0
0.0166666675 -0.0250000004 0
0.0133333337 -0.0250000004 0
0.00999999978 -0.0250000004 0
0.00666666683 -0.0250000004 0
0.00333333341 -0.0250000004 0
0 -0.0250000004 0
0.100000001 -0.0283333343 0
0.0966666639 -0.0283333343 0
0.0933333337 -0.0283333343 0
0.0900000036 -0.0283333343 0
0.086666666 -0.0283333343 0
0.0833333358 -0.0283333343 0
0.0799999982 -0.0283333343 0
0.0766666681 -0.0283333343 0
0.0733333305 -0.0283333343 0
0.0700000003 -0.0283333343 0
0.0666666701 -0.0283333343 0
0.0633333325 -0.0283333343 0
0.0599999987 -0.0283333343 0
0.0566666685 -0.0283333343 0
0.0533333346 -0.0283333343 0
0.0500000007 -0.0283333343 0
0.0466666669 -0.0283333343 0
0.043333333 -0.0283333343 0
0.0399999991 -0.0283333343 0
0.0366666652 -0.0283333343 0
0.0333333351 -0.0283333343 0
0.0299999993 -0.0283333343 0
0.0266666673 -0.0283333343 0
0.0233333334 -0.0283333343 0
0.0199999996 -0.0283333343 0
0.0166666675 -0.0283333343 0
0.0133333337 -0.0283333343 0
0.00999999978 -0.0283333343 0
0.00666666683 -0.0283333343 0
0.00333333341 -0.0283333343 0
0 -0.0283333343 0
0.100000001 -0.0316666663 0
[...]
POINT_DATA 961
SCALARS Temp float 1
LOOKUP_TABLE default
249.34669194249898
217.67553935565897
197.7187915096757
186.67873366628825
181.2836085072543
178.928175181074
177.9970380157777
177.6592172824414
177.5453330215075
177.50927443249185
177.49845348996212
177.49535243343348
177.49449847557
177.49427150163916
177.4942137420881
177.49420262569788
177.4942137420846
177.4942715016244
177.49449847602904
177.4953524352348
177.49845348274906
177.50927444102982
177.54533308776976
177.65921726409113
177.99703858150886
178.92817421635013
181.283609953174
186.67872826890067
197.71879367490436
217.6755674245395
249.34669167327164
217.6755694658686
184.9475253118203
164.3216157736746
152.90901349973814
147.33048698753944
144.8943616982293
143.93108115726739
143.581513736184
143.4636427599266
143.42631407864127
143.41510984820653
143.41189838914804
143.4110138882504
143.41077876216514
143.41071892037849
143.41070740219462
143.41071892037473
143.41077876214987
143.41101388872596
143.41189839101355
143.41510984073759
143.4263140874806
143.46364282851374
143.58151371719157
143.93108174258535
144.8943607003161
147.33048848277437
152.90900791944352
164.32161801165918
184.94755431933615
217.67556918743645
197.718795001713
164.32158762411274
143.26619831845736
131.61012705502148
125.90921959667365
123.41806266876318
122.43238578478392
122.07446671514685
121.95370812339573
121.9154438640827
121.9039529707608
121.90065780351053
121.89974985741507
121.89950840380519
121.89944693001519
121.89943509476367
121.89944693001141
121.89950840378958
121.89974985790336
121.90065780542506
121.90395296309927
121.91544387314553
121.95370819367726
122.07446669568964
122.43238638386202
123.41806164794356
125.90922112512543
131.610121353742
143.26620060342051
164.32161722947617
197.7187947170898
186.67872857016937
152.9089761114726
131.61011794266423
119.81264916077217
114.03863993762242
111.51361813573322
110.51374716585497
110.15038539962713
110.02769604349594
109.98879150857029
109.97710029229718
109.973745523767
109.97282060208693
109.97257449769444
109.9725118085534
109.97249973502335
109.97251180854961
109.97257449767848
109.97282060258442
109.97374552571652
109.97710028450003
109.98879151778739
110.02769611492022
110.15038537985895
110.51374777375395
111.51361710058055
114.03864148617187
119.81264338806938
131.6101202544738
152.90900605235345
186.6787282818919
181.28361030474633
147.33045654767088
125.90921774494944
114.0386473482541
108.22556314248929
105.68177528653611
104.67374729169941
104.30714638186323
104.1832699520631
104.14395991241345
104.13213838928218
104.12874391085353
104.12780743379739
104.1275581023215
104.12749455570248
104.12748231211016
104.12749455569863
104.12755810230543
104.1278074343011
104.12874391282651
104.13213838139589
104.14395992172936
104.18327002419764
104.3071463619037
104.67374790474126
105.68177424327237
108.22556470195008
114.038641537899
125.90922007037966
147.33048665527576
181.28361001459908
178.92817491344053
144.8943290430261
123.4180586233376
111.51362335039867
105.68177305118037
103.12860509926881
102.11632742399594
101.7479687608103
101.62342278692988
101.583875726061
101.57197552773741
101.56855636296245
101.56761251144202
101.56736107162403
101.56729695326963
101.56728459468668
101.56729695326575
101.56736107160764
101.56761251194973
101.56855636495023
101.57197551979675
101.58387573543548
101.6234228594705
101.74796874074256
102.11632803976326
103.12860405185073
105.68177461597307
111.51361752222931
123.41806095495343
144.89435922471853
178.92817462246177
177.99703887111644
143.93104963178604
122.43238292397997
110.51375359367907
104.6737462693055
102.11632864569157
101.10203866806626
100.73280962366017
100.60791741194451
100.56824267258123
100.55629846814948
100.55286501441059
100.55191676036227
100.55166402646198
100.55159954862467
100.55158711653716
100.55159954862053
100.55166402644547
100.5519167608725
100.55286501640691
100.55629846017776
100.56824268198781
100.6079174846983
100.73280960353613
101.10203928514855
102.11632759634088
104.67374783645766
110.51374775788341
122.4323852581383
143.93107984328566
177.99703857981214
177.65921760306787
143.58148164567757
122.07446328658723
110.15039125578984
104.30714477900389
101.74796940095501
100.73280903981451
100.36318558402907
100.238129015332
100.19839089322019
100.18642390538218
100.18298276139022
100.18203205268114
100.18177857386151
100.18171388326797
100.18170140684548
100.18171388326391
100.18177857384494
100.18203205319277
100.18298276339121
100.18642389739422
100.19839090264284
100.23812908818877
100.36318556387805
100.7328096574768
101.74796835078276
104.30714634710957
110.15038541701037
122.0744656217028
143.58151186817452
177.65921731164914
177.54533338760686
143.46361071245937
121.95370474256998
110.02770194979291
104.18326839842229
101.62342347716371
100.60791687793292
100.23812906547087
100.11300066368793
100.07323350251491
100.06125559295266
100.05781060239984
100.05685861672453
100.05660473626665
100.05653992732071
100.05652742570568
100.05653992731668
100.05660473625007
100.05685861723693
100.05781060440329
100.06125558495678
100.07323351194509
100.11300073659051
100.23812904530787
100.60791749583068
101.62342242667002
104.1832699668833
110.0276961099352
121.95370707801966
143.46364093872188
177.54533309615144
177.50927471731808
143.4262819457529
121.9154403968801
109.98879732761625
104.14395827016088
101.58387632738255
100.56824204923886
100.19839085398442
100.07323341306746
100.03345393671091
100.02147117180412
100.01802439216803
100.0170717867943
100.01681770364233
100.0167528328782
100.01674031779397
100.01675283287425
100.01681770362586
100.01707178730706
100.01802439417267
100.02147116380456
100.03345394614442
100.07323348598885
100.19839083381646
100.56824266722494
101.58387527677228
104.14395983874509
109.98879148739502
121.9154427324391
143.42631217322494
177.5092744258517
177.4984537665351
143.41507770637864
121.90394949473986
109.97710610253729
104.13213673796696
101.57197612000087
100.55629783566025
100.18642385701082
100.06125549435453
100.02147116265834
100.00948639026923
100.00603883558996
100.00508594948488
100.00483177058713
100.0047668695207
100.00475434766668
100.00476686951671
100.00483177057066
100.00508594999778
100.00603883759503
100.00948638226824
100.0214711720932
100.06125556728315
100.18642383684106
100.55629845367741
101.57197506935093
104.1321383065914
109.97710026220061
121.90395183033262
143.41510793421847
177.49845347506587
177.49535271689942
143.41186625434372
121.90065433479624
109.9737513414937
104.12874226706339
101.56855696282422
100.55286438953199
100.18298272065493
100.0578105114433
100.01802439067067
100.00603884324057
100.00259097498565
100.00163796997205
100.00138374871122
100.00131883370476
100.00130630865324
100.00131883370084
100.00138374869474
100.00163797048506
100.00259097699092
100.00603883523887
100.01802440010603
100.05781058437458
100.18298270048462
100.55286500755948
101.56855591216156
104.12874383570022
109.97374550112227
121.90065667039894
143.41189648229002
177.49535242542942
177.49449875808608
143.4109817524306
121.89974638768713
109.9728264187958
104.12780578896341
101.56761311025845
100.55191613442851
100.18203201089139
100.05685852471147
100.01707178424091
100.00508595607947
100.00163796891572
100.00068491669934
100.00043067785916
100.00036575683194
100.00035323036165
100.00036575682802
100.00043067784271
100.00068491721235
100.00163797092115
100.0050859480775
100.01707179367645
100.05685859764364
100.1820319907208
100.55191675245915
101.56761205959192
104.12780735760386
109.97282057841439
121.89974872329245
143.41101198040667
177.49449846661565
177.49427178377553
143.4107466259437
121.89950493367235
109.97258031399473
104.12755645706997
101.56736167002114
100.5516634001052
100.18177853164836
100.05660464382925
100.01681770066477
100.00483177675751
100.00138374723049
100.00043067743476
100.00017643175578
100.00011150829155
100.00009898123147
100.00011150828766
100.00017643173925
100.00043067794778
100.00138374923581
100.00483176875541
100.01681771010031
100.05660471676175
100.18177851147775
100.55166401813673
101.56736061935341
104.12755802571141
109.97257447361042
121.89950726927844
143.41077685392762
177.4942714923052
177.49421402426222
143.41068678419376
121.89944345992204
109.97251762489519
104.12749291049207
101.5672975517088
100.55159892230955
100.18171384109698
100.05653983492547
100.01675282994283
100.0047668757334
100.00131883226634
100.00036575644988
100.00011150833383
100.00004658396931
100.00003405668602
100.00004658396539
100.00011150831735
100.00036575696274
100.00131883427163
100.00476686773119
100.01675283937843
100.056539907858
100.1817138209263
100.55159954034139
101.56729650104077
104.12749447913374
109.97251178451022
121.89944579552837
143.41071701217976
177.49421373279185
177.4942029078883
143.41067526602654
121.89943162468786
109.97250555138311
104.12748066691775
101.56728519314412
100.55158649024044
100.18170136469297
100.056527333329
100.01674031487715
100.00475435389781
100.00130630723334
100.00035322999813
100.00009898129234
100.00003405670455
100.00002152936506
100.00003405670068
100.00009898127571
100.00035323051098
100.00130630923856
100.00475434589569
100.01674032431276
100.05652740626148
100.18170134452222
100.5515871082724
101.56728414247605
104.12748223555951
109.97249971099794
121.89943396029433
143.41070549401294
177.49420261641808
177.49421402427242
143.41068678420427
121.89944345993278
109.9725176249062
104.12749291050321
101.56729755172003
100.55159892232093
100.18171384110838
100.05653983493693
100.01675282995423
100.0047668757448
100.00131883227778
100.00036575646128
100.00011150834527
100.00004658398079
100.00003405669752
100.00004658397681
100.00011150832876
100.00036575697416
100.00131883428307
100.00476686774266
100.01675283938977
100.05653990786934
100.18171382093762
100.55159954035278
101.56729650105204
104.1274944791449
109.97251178452125
121.89944579553915
143.41071701219042
177.494213732802
177.4942717838131
143.41074662598254
121.89950493371211
109.97258031403528
104.12755645711111
101.56736167006271
100.55166340014691
100.1817785316903
100.05660464387122
100.01681770070675
100.00483177679946
100.00138374727241
100.00043067747677
100.0001764317978
100.00011150833357
100.00009898127345
100.00011150832957
100.00017643178118
100.00043067798977
100.0013837492779
100.00483176879733
100.01681771014216
100.0566047168035
100.18177851151952
100.55166401817844
101.56736061939493
104.12755802575255
109.97257447365102
121.8995072693183
143.4107768539664
177.49427149234262
177.4944987582275
143.4109817525772
121.89974638783757
109.97282641894908
104.12780578911865
101.56761311041483
100.5519161345857
100.18203201104902
100.05685852486937
100.01707178439892
100.00508595623745
100.00163796907383
100.0006849168574
100.00043067801721
100.00036575698995
100.00035323051961
100.00036575698596
100.00043067800068
100.00068491737042
100.0016379710791
100.0050859482355
100.01707179383428
100.05685859780132
100.18203199087833
100.5519167526163
101.56761205974828
104.12780735775907
109.97282057856755
121.89974872344285
143.4110119805531
177.4944984667571
177.49535271746976
143.41186625493435
121.90065433540234
109.97375134211086
104.12874226768795
101.56855696345349
100.55286439016396
100.18298272128847
100.0578105120776
100.01802439130526
100.0060388438753
100.00259097562049
100.00163797060692
100.00138374934596
100.00131883433953
100.00130630928801
100.00131883433556
100.00138374932956
100.00163797111979
100.00259097762567
100.00603883587351
100.01802440074052
100.05781058500874
100.18298270111792
100.55286500819135
101.56855591279074
104.12874383632466
109.97374550173927
121.90065667100487
143.4118964828806
177.49535242599956
177.4984537720047
143.41507771204232
121.90394950054944
109.9771061084494
104.13213674394639
101.57197612602137
100.55629784170405
100.18642386306696
100.0612555004166
100.02147116872317
100.00948639633518
100.00603884165632
100.0050859555514
100.0048317766536
100.0047668755872
100.00475435373313
100.00476687558326
100.00483177663705
100.00508595606424
100.00603884366134
100.00948638833401
100.02147117815787
100.06125557334514
100.18642384289711
100.55629845972125
101.57197507537141
104.13213831257072
109.97710026811261
121.90395183614197
143.41510793988184
177.49845348053526
177.50927471282876
143.426281941105
121.91544039211436
109.98879732276889
104.14395826526109
101.58387632245152
100.56824204429047
100.19839084902745
100.07323340810636
100.03345393174796
100.0214711668405
100.01802438720412
100.01707178183014
100.01681769867812
100.01675282791402
100.01674031282973
100.01675282790998
100.01681769866164
100.01707178234288
100.01802438920862
100.02147115884087
100.03345394118145
100.07323348102774
100.19839082885952
100.56824266227666
101.58387527184115
104.14395983384529
109.9887914825476
121.91544272767324
143.42631216857686
177.50927442136236
177.54533344431877
143.4636107711615
121.95370480272315
110.0277020109252
104.18326846016369
101.62342353925362
100.60791694020615
100.23812912783274
100.11300072608933
100.07323356493256
100.06125565537667
100.057810664826
100.05685867915146
100.05660479869361
100.05653998974785
100.05652748813293
100.05653998974392
100.05660479867717
100.05685867966388
100.05781066682947
100.06125564738072
100.0732335743628
100.11300079899189
100.23812910766969
100.60791755810382
101.62342248876001
104.18327002862466
110.02769617106748
121.95370713817276
143.4636409974239
177.5453331528634
177.65921755765245
143.58148159867662
122.07446323844574
110.15039120689316
104.30714472964809
101.74796935134351
100.73280899007263
100.36318553422606
100.23812896550267
100.19839084338031
100.18642385553834
100.18298271154491
100.18203200283529
100.18177852401553
100.181713833422
100.18170135699955
100.18171383341809
100.18177852399917
100.18203200334708
100.18298271354602
100.18642384755043
100.19839085280297
100.2381290383594
100.363185514075
100.7328096077349
101.74796830117128
104.30714629775375
110.15038536811367
122.07446557356143
143.58151182117348
177.65921726623375
177.99703953263304
143.93105031620712
122.43238362449512
110.51375430451438
104.67374698616034
102.11632936573787
101.10203938965354
100.7328103459277
100.6079181344883
100.5682433952289
100.55629919083354
100.55286573710667
100.55191748306203
100.55166474916288
100.55160027132581
100.55158783923845
100.55160027132196
100.55166474914657
100.55191748357234
100.55286573910314
100.55629918286196
100.56824340463538
100.60791820724204
100.73281032580358
101.10204000673572
102.11632831638711
104.67374855331246
110.51374846871875
122.43238595865346
143.9310805277068
177.99703924132854
178.92817538631806
144.89432953213023
123.41805912355912
111.51362385750379
105.68177356212783
103.1286056121519
102.11632793776296
101.74796927494583
101.62342330120669
101.58387624038814
101.57197604208133
101.5685568773117
101.56761302579267
101.56736158597518
101.567297467621
101.56728510903802
101.56729746761717
101.56736158595895
101.56761302630059
101.56855687929946
101.57197603414073
101.58387624976268
101.62342337374723
101.74796925487783
102.11632855353011
103.12860456473375
105.68177512692047
111.51361802933442
123.41806145517499
144.89435971382255
178.92817509533918
181.28360841216113
147.3304545904787
125.90921574412877
114.03864532094015
108.22556110072429
105.68177323767097
104.67374523967334
104.30714432855193
104.18326789826996
104.14395785845223
104.13213633526584
104.12874185682006
104.1278053797588
104.12755604828152
104.12749250166215
104.1274802580697
104.12749250165832
104.1275560482655
104.12780538026261
104.12874185879312
104.13213632737963
104.1439578677681
104.18326797040437
104.30714430859214
104.67374585271506
105.681772194407
108.22556266018493
114.03863951058491
125.90921806955895
147.3304846980834
181.28360812201387
186.67873300154162
152.90898069287928
131.61012262305636
119.81265389939642
114.03864470681945
111.51362291933282
110.51375195559513
110.15039019176113
110.02770083649239
109.9887963018567
109.97710508567556
109.97375031717294
109.97282539550076
109.97257929111046
109.97251660196999
109.97250452844001
109.9725166019662
109.97257929109459
109.97282539599831
109.97375031912242
109.97710507787832
109.98879631107376
110.02770090791638
110.15039017199263
110.51375256349371
111.51362188417967
114.03864625536856
119.81264812669353
131.61012493486572
152.9090106337599
186.67873271326408
197.71878978564544
164.3215822323729
143.2661928125478
131.61012148330818
125.90921399125193
123.41805704788636
122.43238015749986
122.07446108543333
121.95370249282965
121.91543823323678
121.9039473398282
121.90065217255228
121.89974422644956
121.89950277283769
121.89944129904715
121.89942946379543
121.89944129904339
121.89950277282215
121.8997442269379
121.90065217446667
121.90394733216647
121.9154382422995
121.95370256311097
122.07446106597568
122.43238075657761
123.41805602706623
125.90921551970338
131.6101157820285
143.2661950975107
164.32161183773633
197.71878950102203
217.67559294580974
184.9475495770217
164.32164053916983
152.90903854608916
147.3305121734884
144.8943869462206
143.93110643022044
143.58153901834567
143.46366804524087
143.42633936496787
143.41513513484088
143.41192367587155
143.41103917499868
143.41080404892014
143.41074420713494
143.41073268895155
143.41074420713147
143.41080404890494
143.41103917547426
143.41192367773698
143.4151351273718
143.42633937380717
143.4636681138278
143.581538999353
143.93110701553815
144.89438594830727
147.33051366872303
152.90903296579438
164.32164277715387
184.9475785845366
217.67559266737751
249.34669171984552
217.6755391255286
197.7187912747552
186.67873342870465
181.28360826839196
178.92817494167625
177.99703777618075
177.65921704277702
177.54533278182205
177.5092741928002
177.49845325026888
177.49535219373976
177.494498235876
177.49427126194516
177.49421350239408
177.49420238600385
177.4942135023907
177.49427126193052
177.4944982363352
177.495352195541
177.49845324305574
177.50927420133817
177.54533284808426
177.65921702442668
177.99703834191163
178.9281739769521
181.28360971431147
186.67872803131687
197.7187934399838
217.67556719440896
249.3466914506181

