# vtk DataFile Version 2.0
Unstructured Grid Example
ASCII
DATASET UNSTRUCTURED_GRID

POINTS 961 float
0.100000001 0.00499999989 0
0.0966666639 0.00499999989 0
0.0933333337 0.00499999989 0
0.0900000036 0.00499999989 0
0.086666666 0.00499999989 0
0.0833333358 0.00499999989 0
0.0799999982 0.00499999989 0
0.0766666681 0.00499999989 0
0.0733333305 0.00499999989 0
0.0700000003 0.00499999989 0
0.0666666701 0.00499999989 0
0.0633333325 0.00499999989 0
0.0599999987 0.00499999989 0
0.0566666685 0.00499999989 0
0.0533333346 0.00499999989 0
0.0500000007 0.00499999989 0
0.0466666669 0.00499999989 0
0.043333333 0.00499999989 0
0.0399999991 0.00499999989 0
0.0366666652 0.00499999989 0
0.0333333351 0.00499999989 0
0.0299999993 0.00499999989 0
0.0266666673 0.00499999989 0
0.0233333334 0.00499999989 0
0.0199999996 0.00499999989 0
0.0166666675 0.00499999989 0
0.0133333337 0.00499999989 0
0.00999999978 0.00499999989 0
0.00666666683 0.00499999989 0
0.00333333341 0.00499999989 0
0 0.00499999989 0
0.100000001 0.00166666671 0
0.0966666639 0.00166666671 0
0.0933333337 0.00166666671 0
0.0900000036 0.00166666671 0
0.086666666 0.00166666671 0
0.0833333358 0.00166666671 0
0.0799999982 0.00166666671 0
0.0766666681 0.00166666671 0
0.0733333305 0.00166666671 0
0.0700000003 0.00166666671 0
0.0666666701 0.00166666671 0
0.0633333325 0.00166666671 0
0.0599999987 0.00166666671 0
0.0566666685 0.00166666671 0
0.0533333346 0.00166666671 0
0.0500000007 0.00166666671 0
0.0466666669 0.00166666671 0
0.043333333 0.00166666671 0
0.0399999991 0.00166666671 0
0.0366666652 0.00166666671 0
0.0333333351 0.00166666671 0
0.0299999993 0.00166666671 0
0.0266666673 0.00166666671 0
0.0233333334 0.00166666671 0
0.0199999996 0.00166666671 0
0.0166666675 0.00166666671 0
0.0133333337 0.00166666671 0
0.00999999978 0.00166666671 0
0.00666666683 0.00166666671 0
0.00333333341 0.00166666671 0
0 0.00166666671 0
0.100000001 -0.00166666671 0
0.0966666639 -0.00166666671 0
0.0933333337 -0.00166666671 0
0.0900000036 -0.00166666671 0
0.086666666 -0.00166666671 0
0.0833333358 -0.00166666671 0
0.0799999982 -0.00166666671 0
0.0766666681 -0.00166666671 0
0.0733333305 -0.00166666671 0
0.0700000003 -0.00166666671 0
0.0666666701 -0.00166666671 0
0.0633333325 -0.00166666671 0
0.0599999987 -0.00166666671 0
0.0566666685 -0.00166666671 0
0.0533333346 -0.00166666671 0
0.0500000007 -0.00166666671 0
0.0466666669 -0.00166666671 0
0.043333333 -0.00166666671 0
0.0399999991 -0.00166666671 0
0.0366666652 -0.00166666671 0
0.0333333351 -0.00166666671 0
0.0299999993 -0.00166666671 0
0.0266666673 -0.00166666671 0
0.0233333334 -0.00166666671 0
0.0199999996 -0.00166666671 0
0.0166666675 -0.00166666671 0
0.0133333337 -0.00166666671 0
0.00999999978 -0.00166666671 0
0.00666666683 -0.00166666671 0
0.00333333341 -0.00166666671 0
0 -0.00166666671 0
0.100000001 -0.00499999989 0
0.0966666639 -0.00499999989 0
0.0933333337 -0.00499999989 0
0.0900000036 -0.00499999989 0
0.086666666 -0.00499999989 0
0.0833333358 -0.00499999989 0
0.0799999982 -0.00499999989 0
0.0766666681 -0.00499999989 0
0.0733333305 -0.00499999989 0
0.0700000003 -0.00499999989 0
0.0666666701 -0.00499999989 0
0.0633333325 -0.00499999989 0
0.0599999987 -0.00499999989 0
0.0566666685 -0.00499999989 0
0.0533333346 -0.00499999989 0
0.0500000007 -0.00499999989 0
0.0466666669 -0.00499999989 0
0.043333333 -0.00499999989 0
0.0399999991 -0.00499999989 0
0.0366666652 -0.00499999989 0
0.0333333351 -0.00499999989 0
0.0299999993 -0.00499999989 0
0.0266666673 -0.00499999989 0
0.0233333334 -0.00499999989 0
0.0199999996 -0.00499999989 0
0.0166666675 -0.00499999989 0
0.0133333337 -0.00499999989 0
0.00999999978 -0.00499999989 0
0.00666666683 -0.00499999989 0
0.00333333341 -0.00499999989 0
0 -0.00499999989 0
0.100000001 -0.00833333377 0
0.0966666639 -0.00833333377 0
0.0933333337 -0.00833333377 0
0.0900000036 -0.00833333377 0
0.086666666 -0.00833333377 0
0.0833333358 -0.00833333377 0
0.0799999982 -0.00833333377 0
0.0766666681 -0.00833333377 0
0.0733333305 -0.00833333377 0
0.0700000003 -0.00833333377 0
0.0666666701 -0.00833333377 0
0.0633333325 -0.00833333377 0
0.0599999987 -0.00833333377 0
0.0566666685 -0.00833333377 0
0.0533333346 -0.00833333377 0
0.0500000007 -0.00833333377 0
0.0466666669 -0.00833333377 0
0.043333333 -0.00833333377 0
0.0399999991 -0.00833333377 0
0.0366666652 -0.00833333377 0
0.0333333351 -0.00833333377 0
0.0299999993 -0.00833333377 0
0.0266666673 -0.00833333377 0
0.0233333334 -0.00833333377 0
0.0199999996 -0.00833333377 0
0.0166666675 -0.00833333377 0
0.0133333337 -0.00833333377 0
0.00999999978 -0.00833333377 0
0.00666666683 -0.00833333377 0
0.00333333341 -0.00833333377 0
0 -0.00833333377 0
0.100000001 -0.0116666667 0
0.0966666639 -0.0116666667 0
0.0933333337 -0.0116666667 0
0.0900000036 -0.0116666667 0
0.086666666 -0.0116666667 0
0.0833333358 -0.0116666667 0
0.0799999982 -0.0116666667 0
0.0766666681 -0.0116666667 0
0.0733333305 -0.0116666667 0
0.0700000003 -0.0116666667 0
0.0666666701 -0.0116666667 0
0.0633333325 -0.0116666667 0
0.0599999987 -0.0116666667 0
0.0566666685 -0.0116666667 0
0.0533333346 -0.0116666667 0
0.0500000007 -0.0116666667 0
0.0466666669 -0.0116666667 0
0.043333333 -0.0116666667 0
0.0399999991 -0.0116666667 0
0.0366666652 -0.0116666667 0
0.0333333351 -0.0116666667 0
0.0299999993 -0.0116666667 0
0.0266666673 -0.0116666667 0
0.0233333334 -0.0116666667 0
0.0199999996 -0.0116666667 0
0.0166666675 -0.0116666667 0
0.0133333337 -0.0116666667 0
0.00999999978 -0.0116666667 0
0.00666666683 -0.0116666667 0
0.00333333341 -0.0116666667 0
0 -0.0116666667 0
0.100000001 -0.0149999997 0
0.0966666639 -0.0149999997 0
0.0933333337 -0.0149999997 0
0.0900000036 -0.0149999997 0
0.086666666 -0.0149999997 0
0.0833333358 -0.0149999997 0
0.0799999982 -0.0149999997 0
0.0766666681 -0.0149999997 0
0.0733333305 -0.0149999997 0
0.0700000003 -0.0149999997 0
0.0666666701 -0.0149999997 0
0.0633333325 -0.0149999997 0
0.0599999987 -0.0149999997 0
0.0566666685 -0.0149999997 0
0.0533333346 -0.0149999997 0
0.0500000007 -0.0149999997 0
0.0466666669 -0.0149999997 0
0.043333333 -0.0149999997 0
0.0399999991 -0.0149999997 0
0.0366666652 -0.0149999997 0
0.0333333351 -0.0149999997 0
0.0299999993 -0.0149999997 0
0.0266666673 -0.0149999997 0
0.0233333334 -0.0149999997 0
0.0199999996 -0.0149999997 0
0.0166666675 -0.0149999997 0
0.0133333337 -0.0149999997 0
0.00999999978 -0.0149999997 0
0.00666666683 -0.0149999997 0
0.00333333341 -0.0149999997 0
0 -0.0149999997 0
0.100000001 -0.0183333326 0
0.0966666639 -0.0183333326 0
0.0933333337 -0.0183333326 0
0.0900000036 -0.0183333326 0
0.086666666 -0.0183333326 0
0.0833333358 -0.0183333326 0
0.0799999982 -0.0183333326 0
0.0766666681 -0.0183333326 0
0.0733333305 -0.0183333326 0
0.0700000003 -0.0183333326 0
0.0666666701 -0.0183333326 0
0.0633333325 -0.0183333326 0
0.0599999987 -0.0183333326 0
0.0566666685 -0.0183333326 0
0.0533333346 -0.0183333326 0
0.0500000007 -0.0183333326 0
0.0466666669 -0.0183333326 0
0.043333333 -0.0183333326 0
0.0399999991 -0.0183333326 0
0.0366666652 -0.0183333326 0
0.0333333351 -0.0183333326 0
0.0299999993 -0.0183333326 0
0.0266666673 -0.0183333326 0
0.0233333334 -0.0183333326 0
0.0199999996 -0.0183333326 0
0.0166666675 -0.0183333326 0
0.0133333337 -0.0183333326 0
0.00999999978 -0.0183333326 0
0.00666666683 -0.0183333326 0
0.00333333341 -0.0183333326 0
0 -0.0183333326 0
0.100000001 -0.0216666665 0
0.0966666639 -0.0216666665 0
0.0933333337 -0.0216666665 0
0.0900000036 -0.0216666665 0
0.086666666 -0.0216666665 0
0.0833333358 -0.0216666665 0
0.0799999982 -0.0216666665 0
0.0766666681 -0.0216666665 0
0.0733333305 -0.0216666665 0
0.0700000003 -0.0216666665 0
0.0666666701 -0.0216666665 0
0.0633333325 -0.0216666665 0
0.0599999987 -0.0216666665 0
0.0566666685 -0.0216666665 0
0.0533333346 -0.0216666665 0
0.0500000007 -0.0216666665 0
0.0466666669 -0.0216666665 0
0.043333333 -0.0216666665 0
0.0399999991 -0.0216666665 0
0.0366666652 -0.0216666665 0
0.0333333351 -0.0216666665 0
0.0299999993 -0.0216666665 0
0.0266666673 -0.0216666665 0
0.0233333334 -0.0216666665 0
0.0199999996 -0.0216666665 0
0.0166666675 -0.0216666665 0
0.0133333337 -0.0216666665 0
0.00999999978 -0.0216666665 0
0.00666666683 -0.0216666665 0
0.00333333341 -0.0216666665 0
0 -0.0216666665 0
0.100000001 -0.0250000004 0
0.0966666639 -0.0250000004 0
0.0933333337 -0.0250000004 0
0.0900000036 -0.0250000004 0
0.086666666 -0.0250000004 0
0.0833333358 -0.0250000004 0
0.0799999982 -0.0250000004 0
0.0766666681 -0.0250000004 0
0.0733333305 -0.0250000004 0
0.0700000003 -0.0250000004 0
0.0666666701 -0.0250000004 0
0.0633333325 -0.0250000004 0
0.0599999987 -0.0250000004 0
0.0566666685 -0.0250000004 0
0.0533333346 -0.0250000004 0
0.0500000007 -0.0250000004 0
0.0466666669 -0.0250000004 0
0.043333333 -0.0250000004 0
0.0399999991 -0.0250000004 0
0.0366666652 -0.0250000004 0
0.0333333351 -0.0250000004 0
0.0299999993 -0.0250000004 0
0.0266666673 -0.0250000004 0
0.0233333334 -0.0250000004 0
0.0199999996 -0.0250000004 0
0.0166666675 -0.0250000004 0
0.0133333337 -0.0250000004 0
0.00999999978 -0.0250000004 0
0.00666666683 -0.0250000004 0
0.00333333341 -0.0250000004 0
0 -0.0250000004 0
0.100000001 -0.0283333343 0
0.0966666639 -0.0283333343 0
0.0933333337 -0.0283333343 0
0.0900000036 -0.0283333343 0
0.086666666 -0.0283333343 0
0.0833333358 -0.0283333343 0
0.0799999982 -0.0283333343 0
0.0766666681 -0.0283333343 0
0.0733333305 -0.0283333343 0
0.0700000003 -0.0283333343 0
0.0666666701 -0.0283333343 0
0.0633333325 -0.0283333343 0
0.0599999987 -0.0283333343 0
0.0566666685 -0.0283333343 0
0.0533333346 -0.0283333343 0
0.0500000007 -0.0283333343 0
0.0466666669 -0.0283333343 0
0.043333333 -0.0283333343 0
0.0399999991 -0.0283333343 0
0.0366666652 -0.0283333343 0
0.0333333351 -0.0283333343 0
0.0299999993 -0.0283333343 0
0.0266666673 -0.0283333343 0
0.0233333334 -0.0283333343 0
0.0199999996 -0.0283333343 0
0.0166666675 -0.0283333343 0
0.0133333337 -0.0283333343 0
0.00999999978 -0.0283333343 0
0.00666666683 -0.0283333343 0
0.00333333341 -0.0283333343 0
0 -0.0283333343 0
0.100000001 -0.0316666663 0
[...]
POINT_DATA 961
SCALARS Temp float 1
LOOKUP_TABLE default
226.68258341746557
195.60752611566193
178.32984564210054
170.26500223627937
167.0337099174387
165.89187739656975
165.52688645230037
165.41913941538496
165.38929212875837
165.3814392852303
165.37945881415217
165.3789766477772
165.37886270338632
165.3788364631771
165.37883060654966
165.37882958248625
165.37883060654931
165.37883646317542
165.37886270344455
165.3789766480432
165.37945881291242
165.38143928696826
165.38929214502633
165.41913941044157
165.52688665698113
165.89187697747448
167.03371071075605
170.2649987047679
178.32984741296247
195.60755223951008
226.68258341907574
195.60755386483606
163.5366158053065
145.69920104564713
137.36953174484037
134.0306313200853
132.8502697025764
132.47281801551745
132.3613549568906
132.33046919721434
132.32234103748615
132.32029066769758
132.31979138358804
132.3196733728733
132.31964619187806
132.31964012441614
132.31963906337901
132.31964012441568
132.31964619187636
132.31967337293364
132.3197913838635
132.3202906664139
132.32234103928516
132.33046921404974
132.36135495177572
132.4728182272129
132.8502692692609
134.03063213996447
137.36952809649554
145.69920287415258
163.53664277013078
195.60755386533597
178.32984822592377
145.69917455998413
127.53722582115135
119.04789287870177
115.64141216533595
114.4359121159952
114.05005252507353
113.93600861526298
113.90438359121598
113.89605524699385
113.89395311549158
113.89344095184742
113.89331983853131
113.89329193079855
113.89328569870891
113.89328460857878
113.89328569870844
113.89329193079675
113.89331983859341
113.89344095213006
113.89395311417532
113.89605524883764
113.90438360845842
113.93600861002687
114.05005274155488
114.43591167325019
115.64141300216205
119.04788915834949
127.5372276835395
145.69920200364498
178.32984822407576
170.26499869164192
137.36949868258546
119.04788640005395
110.47592644670685
107.03250084238206
105.81251217868741
105.42157172085473
105.30590313600672
105.27379622426906
105.26533345115365
105.26319566237513
105.26267442860711
105.26255108798226
105.26252264967314
105.26251629562755
105.26251518372207
105.26251629562722
105.26252264967142
105.26255108804536
105.26267442889484
105.26319566103616
105.26533345302774
105.27379624177969
105.30590313069229
105.4215719402743
105.81251173037809
107.03250168868017
110.4759226879399
119.04788827940398
137.36952635654663
170.2649986878601
167.03371072502696
134.030602652102
115.6414102608654
107.03250549334702
103.57149313684728
102.34415491879375
101.95047971074004
101.8338895646709
101.80149666315201
101.79295095862992
101.79079042944774
101.79026324318707
101.79013840403725
101.79010960092143
101.79010316144024
101.79010203407807
101.7901031614399
101.79010960091964
101.79013840410107
101.79026324347808
101.7907904280942
101.79295096052296
101.80149668082375
101.83388955931035
101.95047993177396
102.34415446757355
103.5714939877773
107.03250171677922
115.64141214752722
134.03063042128744
167.03371072021972
165.8918771329493
132.85023989013982
114.43590907665498
105.81251569301094
102.34415376633412
101.1135267263292
100.7185425063003
100.60148299556076
100.56893621280385
100.56034370847387
100.55816980799341
100.55763899514905
100.5575132144286
100.55748417584616
100.55747767993238
100.55747654219451
100.55747767993195
100.55748417584425
100.55751321449289
100.55763899544219
100.55816980663124
100.56034371037781
100.56893623056399
100.60148299017557
100.71854272812665
101.11352627375784
102.34415461925742
105.81251190919885
114.43591096608354
132.85026769399462
165.89187712773239
165.52688663149934
132.4727886487606
114.05004995226778
105.42157571185106
101.95047903481878
100.71854298553008
100.32299983564108
100.20572576606448
100.17310408691918
100.16448749844473
100.16230637299289
100.16177351563648
100.16164718410987
100.16161800326532
100.16161147230062
100.16161032799329
100.16161147230014
100.16161800326344
100.16164718417451
100.16177351593073
100.16230637162582
100.1644875003544
100.17310410472312
100.20572576066743
100.32300005781528
100.71854253239897
101.9504798885056
105.42157192540854
114.05005184263591
132.47281646399907
165.52688662614727
165.41913939883733
132.36132538398462
113.93600583496035
105.30590691800862
101.8338886770823
100.60148326276986
100.2057255534564
100.08836315608019
100.05570849318502
100.04708061846877
100.04489591373697
100.04436199261467
100.0442353618956
100.04420610080517
100.04419954941955
100.04419840119812
100.04419954941902
100.04420610080324
100.04423536196045
100.04436199290953
100.04489591236751
100.04708062038108
100.05570851100876
100.08836315067771
100.20572577576797
100.60148280942968
101.83388953103325
105.30590313069888
113.93600772562047
132.36135320266365
165.4191393934462
165.3892921208621
132.33043963222093
113.90438081995997
105.27380001586415
101.80149578490565
100.56893648954225
100.17310388377993
100.05570850271494
100.02304065134993
100.01440795698362
100.01222162791393
100.01168719683436
100.01156041551903
100.01153111226043
100.01152454973949
100.0115233993288
100.01152454973902
100.0115311122585
100.01156041558394
100.01168719712956
100.01222162654334
100.01440795889711
100.02304066918171
100.05570849731022
100.17310410614076
100.56893603613075
101.80149663894048
105.27379622829035
113.90438271070488
132.33046745187258
165.38929211546068
165.3814392573102
132.32231145149083
113.89605245447744
105.26533722126848
101.79295005860435
100.56034396336348
100.16448727337341
100.04708060605748
100.01440793502988
100.00577335875482
100.00358635372497
100.00305169749971
100.00292484603033
100.00289552216263
100.0028889539693
100.00288780241124
100.0028889539689
100.00289552216081
100.00292484609535
100.00305169779509
100.00358635235388
100.00577336066881
100.01440795286469
100.04708060065185
100.16448749575044
100.56034350992961
101.79295091266394
105.26533343361946
113.89605434524559
132.32233927140314
165.3814392519062
165.37945878472885
132.32026108007466
113.89395032137007
105.2631994308872
101.79078952777455
100.55817006123635
100.16230614626048
100.0448958996665
100.01222160429906
100.0035863520644
100.00139908824133
100.00086434036005
100.00073745864827
100.0007081254209
100.00070155453183
100.00070040241141
100.00070155453143
100.00070812541908
100.00073745871329
100.00086434065543
100.00139908687007
100.00358635397866
100.01222162213485
100.04489589426069
100.16230636864246
100.55816960779589
101.79079038184119
105.26319564321777
113.8939522121443
132.32028890005364
165.3794587793244
165.37897661950726
132.31976179714164
113.89343815894817
105.26267819837017
101.79026234277144
100.55763924966078
100.16177329017488
100.04436197981866
100.01168717449474
100.00305169711542
100.00086434163654
100.00032955924183
100.00020266544983
100.0001733282723
100.00016675618889
100.00016560381084
100.00016675618852
100.00017332827045
100.00020266551493
100.00032955953726
100.00086434026514
100.00305169902967
100.01168719233094
100.04436197441288
100.16177351255844
100.55763879621847
101.79026319683993
105.26267441069552
113.89344004972382
132.3197896171371
165.37897661410273
165.378862674969
132.31964378627006
113.89331704547509
105.26255485758723
101.79013750345995
100.5575134687783
100.1616469584849
100.04423534893641
100.01156039301587
100.00292484548262
100.00073745976131
100.0002026652864
100.00007576701037
100.0000464282817
100.00003985570501
100.00003870321686
100.00003985570461
100.0000464282799
100.00007576707544
100.00020266558187
100.00073745838992
100.00292484739687
100.01156041085217
100.04423534353056
100.16164718086883
100.55751301533546
101.7901383575288
105.26255106991134
113.89331893625109
132.31967160626948
165.37886266956437
165.37883643471238
132.3196166052248
113.89328913769161
105.26252641922713
101.79010870029214
100.55748443014352
100.16161777758762
100.04420608779313
100.01153108970435
100.00289552156191
100.00070812648113
100.00017332805592
100.0000464282288
100.00001708893294
100.00001051616654
100.00000936363448
100.00001051616616
100.00001708893107
100.00004642829377
100.00017332835132
100.00070812510961
100.00289552347618
100.01153110754069
100.04420608238725
100.16161799997163
100.5574839767005
101.79010955436112
105.26252263155085
113.8932910284677
132.319644425225
165.37883642930765
165.37883057808918
132.31961053776692
113.8932829056064
105.26252006518617
101.79010226081559
100.55747793423454
100.16161124662763
100.0441995364123
100.01152452718821
100.00288895337341
100.00070155559682
100.00016675597742
100.00003985565698
100.00001051617134
100.00000394333843
100.00000279079053
100.00000394333809
100.0000105161695
100.00003985572182
100.00016675627269
100.0007015542253
100.0028889552877
100.01152454502453
100.04419953100641
100.16161146901173
100.55747748079158
101.79010311488463
105.26251627750983
113.89328479638246
132.3196383577674
165.37883057268454
165.37882955402733
132.3196094767313
113.89328181547793
105.26251895328235
101.79010113345512
100.55747679649849
100.16161010232202
100.04419838819268
100.01152337677937
100.00288780181715
100.00070040347808
100.00016560360112
100.00003870317059
100.0000093636411
100.00000279079235
100.00000163824059
100.00000279079198
100.00000936363915
100.00003870323539
100.00016560389635
100.00070040210665
100.00288780373141
100.01152339461566
100.04419838278676
100.16161032470616
100.55747634305551
101.79010198752417
105.26251516560598
113.89328370625408
132.31963729673186
165.3788295486228
165.37883057809015
132.31961053776797
113.8932829056074
105.26252006518727
101.79010226081664
100.55747793423565
100.16161124662877
100.04419953641343
100.01152452718937
100.00288895337454
100.00070155559797
100.00016675597851
100.00003985565812
100.00001051617248
100.00000394333964
100.0000027907918
100.00000394333918
100.00001051617059
100.00003985572293
100.00016675627379
100.00070155422651
100.00288895528875
100.01152454502565
100.0441995310075
100.16161146901288
100.55747748079267
101.79010311488572
105.26251627751097
113.8932847963836
132.31963835776853
165.3788305726856
165.3788364347166
132.31961660522916
113.89328913769604
105.26252641923165
101.79010870029671
100.55748443014815
100.16161777759224
100.04420608779782
100.01153108970905
100.00289552156663
100.00070812648575
100.0001733280606
100.00004642823347
100.0000170889376
100.00001051617124
100.00000936363915
100.0000105161708
100.00001708893573
100.00004642829846
100.00017332835601
100.00070812511424
100.00289552348076
100.01153110754527
100.04420608239188
100.16161799997627
100.5574839767052
101.79010955436571
105.26252263155538
113.89329102847215
132.31964442522937
165.37883642931192
165.37886267498712
132.31964378628885
113.89331704549437
105.26255485760684
101.79013750347977
100.55751346879822
100.16164695850492
100.0442353489565
100.01156039303605
100.0029248455028
100.00073745978148
100.0002026653066
100.00007576703057
100.00004642830187
100.00003985572518
100.00003870323694
100.00003985572476
100.00004642830001
100.00007576709562
100.00020266560199
100.00073745841003
100.00292484741695
100.01156041087218
100.0442353435506
100.16164718088883
100.55751301535543
101.79013835754867
105.26255106993086
113.89331893627022
132.31967160628815
165.37886266958245
165.37897661959184
132.31976179722915
113.89343815903796
105.26267819846156
101.7902623428639
100.55763924975386
100.16177329026834
100.0443619799124
100.01168717458856
100.0030516972093
100.00086434173038
100.00032955933574
100.00020266554377
100.0001733283661
100.00016675628271
100.00016560390466
100.0001667562823
100.00017332836435
100.00020266560865
100.00032955963106
100.0008643403589
100.00305169912345
100.01168719242465
100.04436197450644
100.16177351265186
100.55763879631154
101.79026319693229
105.26267441078681
113.89344004981353
132.31978961722453
165.37897661418714
165.37945878567479
132.32026108105396
113.89395032237427
105.26319943190862
101.79078952880714
100.55817006227551
100.16230614730318
100.04489590071125
100.0122216053446
100.00358635311038
100.00139908928736
100.00086434140613
100.00073745969442
100.00070812646696
100.0007015555779
100.00070040345739
100.00070155557749
100.00070812646507
100.00073745975934
100.00086434170143
100.00139908791604
100.00358635502444
100.01222162318034
100.04489589530539
100.16230636968534
100.55816960883504
101.79079038287368
105.26319564423915
113.89395221314828
132.32028890103274
165.37945878027017
165.38143925641316
132.32231145056235
113.89605245352574
105.26533722030103
101.79295005762704
100.56034396238049
100.16448727238736
100.04708060507006
100.01440793404197
100.0057733577666
100.00358635273668
100.00305169651139
100.00292484504193
100.00289552117414
100.00288895298088
100.00288780142279
100.00288895298041
100.0028955211723
100.00292484510685
100.00305169680668
100.0035863513655
100.00577335968055
100.01440795187673
100.04708059966458
100.16448749476456
100.56034350894657
101.79295091168667
105.26533343265197
113.89605434429376
132.32233927047443
165.38143925100914
165.38929213473372
132.3304396465765
113.90438083466283
105.27380003079577
101.80149579997506
100.5689365046871
100.1731038989623
100.0557085179143
100.02304066655635
100.0144079721926
100.01222164312387
100.01168721204454
100.01156043072925
100.01153112747059
100.0115245649497
100.01152341453907
100.0115245649493
100.01153112746876
100.01156043079416
100.01168721233971
100.01222164175326
100.01440797410606
100.02304068438812
100.05570851250961
100.17310412132316
100.5689360512757
101.80149665400987
105.27379624322202
113.90438272540767
132.3304674662281
165.38929212933232
165.41913938586302
132.36132537056108
113.9360058212207
105.30590690406655
101.8338886630225
100.60148324864814
100.20572553930528
100.08836314191643
100.05570847901637
100.04708060429826
100.04489589956583
100.04436197844332
100.04423534772414
100.04420608663368
100.0441995352481
100.0441983870267
100.0441995352477
100.04420608663193
100.04423534778907
100.04436197873825
100.04489589819643
100.04708060621061
100.05570849684008
100.08836313651396
100.20572576161683
100.60148279530793
101.83388951697339
105.3059031167568
113.93600771188103
132.36135318924005
165.41913938047196
165.52688687047348
132.472788895925
114.05005020502082
105.42157596803591
101.95047929289014
100.71854324452758
100.32300009504559
100.2057260256299
100.17310434654247
100.16448775808706
100.16230663264102
100.1617737752863
100.16164744376005
100.1616182629157
100.16161173195097
100.16161058764361
100.16161173195056
100.16161826291388
100.16164744382479
100.1617737755807
100.16230663127403
100.1644877599967
100.17310436434637
100.20572602023273
100.32300031721967
100.71854279139643
101.95048014657687
105.42157218159348
114.0500520953888
132.47281671116346
165.52688686512136
165.8918773511003
132.85024011567535
114.43590930705255
105.81251592624571
102.34415400102934
101.11352696168794
100.71854274192685
100.60148323128455
100.56893644855981
100.56034394423959
100.558170043762
100.5576392309184
100.5575134501979
100.55748441161556
100.55747791570184
100.55747677796406
100.55747791570148
100.55748441161383
100.55751345026239
100.5576392312115
100.55817004239981
100.56034394614359
100.56893646631984
100.60148322589924
100.71854296375305
101.11352650911654
102.34415485395265
105.81251214243362
114.43591119648116
132.8502679195301
165.8918773458833
167.0337097079483
134.03060160093793
115.64140918789239
107.03250440813025
103.5714920456055
102.34415382493889
101.95047861587535
101.83388846945374
101.80149556782185
101.79294986326603
101.79078933407433
101.79026214781106
101.79013730866049
101.79010850554455
101.79010206606343
101.79010093870123
101.79010206606306
101.79010850554293
101.79013730872447
101.79026214810216
101.79078933272088
101.79294986515907
101.80149558549353
101.83388846409298
101.95047883690924
102.34415337371858
103.57149289653545
107.03250063156244
115.64141107455417
134.03062937012325
167.03370970314097
170.26500165984586
137.3695017488458
119.04788952648717
110.47592960503823
107.03250401537908
105.81251535760315
105.42157490190313
105.30590631775395
105.27379940622801
105.26533663317264
105.2631988444103
105.26267761064649
105.26255427002256
105.26252583171369
105.26251947766819
105.26251836576269
105.26251947766785
105.26252583171203
105.26255427008569
105.26267761093415
105.26319884307135
105.26533663504667
105.2737994237383
105.3059063124392
105.4215751213224
105.81251490929353
107.03250486167697
110.47592584627121
119.04789140583699
137.36952942280675
170.26500165606393
178.32984421417842
145.6991704170491
127.53722160003785
119.04788861771365
115.64140788679515
114.435907830679
114.05004823741844
113.93600432687136
113.90437930260909
113.89605095832754
113.89394882680978
113.89343666316165
113.89331554984456
113.8932876421115
113.89328141002169
113.89328031989162
113.89328141002132
113.89328764210971
113.89331554990656
113.89343666344413
113.89394882549341
113.89605096017122
113.90437931985129
113.93600432163507
114.05004845389958
114.43590738793374
115.64140872362105
119.0478848973612
127.53722346242574
145.69919786070986
178.3298442123303
195.60757563981986
163.5366382815432
145.6992239216058
137.3695548132972
134.03065446822475
132.85029287974717
132.47284120222298
132.36137814647785
132.33049238761615
132.32236422810604
132.32031385837328
132.3198145742775
132.31969656356605
132.31966938257156
132.31966331510966
132.3196622540726
132.31966331510932
132.31966938256988
132.31969656362642
132.31981457455296
132.32031385708962
132.32236422990493
132.33049240445135
132.3613781413629
132.47284141391836
132.85029244643147
134.03065528810382
137.36955116495218
145.69922575011083
163.53666524636668
195.60757564031962
226.68258331924918
195.60752601355944
178.32984553678844
170.26500212905017
167.03370980936762
165.89187728820644
165.5268863438503
165.41913930691143
165.3892920202789
165.38143917674932
165.37945870567088
165.37897653929585
165.3788625949048
165.3788363546957
165.37883049806814
165.37882947400482
165.3788304980679
165.3788363546941
165.3788625949632
165.37897653956176
165.37945870443107
165.38143917848726
165.3892920365468
165.4191393019679
165.5268865485309
165.89187686911114
167.03371060268483
170.26499859753847
178.32984730765025
195.6075521374076
226.68258332085912

