# vtk DataFile Version 2.0
Unstructured Grid Example
ASCII
DATASET UNSTRUCTURED_GRID

POINTS 961 float
0.100000001 0.00499999989 0
0.0966666639 0.00499999989 0
0.0933333337 0.00499999989 0
0.0900000036 0.00499999989 0
0.086666666 0.00499999989 0
0.0833333358 0.00499999989 0
0.0799999982 0.00499999989 0
0.0766666681 0.00499999989 0
0.0733333305 0.00499999989 0
0.0700000003 0.00499999989 0
0.0666666701 0.00499999989 0
0.0633333325 0.00499999989 0
0.0599999987 0.00499999989 0
0.0566666685 0.00499999989 0
0.0533333346 0.00499999989 0
0.0500000007 0.00499999989 0
0.0466666669 0.00499999989 0
0.043333333 0.00499999989 0
0.0399999991 0.00499999989 0
0.0366666652 0.00499999989 0
0.0333333351 0.00499999989 0
0.0299999993 0.00499999989 0
0.0266666673 0.00499999989 0
0.0233333334 0.00499999989 0
0.0199999996 0.00499999989 0
0.0166666675 0.00499999989 0
0.0133333337 0.00499999989 0
0.00999999978 0.00499999989 0
0.00666666683 0.00499999989 0
0.00333333341 0.00499999989 0
0 0.00499999989 0
0.100000001 0.00166666671 0
0.0966666639 0.00166666671 0
0.0933333337 0.00166666671 0
0.0900000036 0.00166666671 0
0.086666666 0.00166666671 0
0.0833333358 0.00166666671 0
0.0799999982 0.00166666671 0
0.0766666681 0.00166666671 0
0.0733333305 0.00166666671 0
0.0700000003 0.00166666671 0
0.0666666701 0.00166666671 0
0.0633333325 0.00166666671 0
0.0599999987 0.00166666671 0
0.0566666685 0.00166666671 0
0.0533333346 0.00166666671 0
0.0500000007 0.00166666671 0
0.0466666669 0.00166666671 0
0.043333333 0.00166666671 0
0.0399999991 0.00166666671 0
0.0366666652 0.00166666671 0
0.0333333351 0.00166666671 0
0.0299999993 0.00166666671 0
0.0266666673 0.00166666671 0
0.0233333334 0.00166666671 0
0.0199999996 0.00166666671 0
0.0166666675 0.00166666671 0
0.0133333337 0.00166666671 0
0.00999999978 0.00166666671 0
0.00666666683 0.00166666671 0
0.00333333341 0.00166666671 0
0 0.00166666671 0
0.100000001 -0.00166666671 0
0.0966666639 -0.00166666671 0
0.0933333337 -0.00166666671 0
0.0900000036 -0.00166666671 0
0.086666666 -0.00166666671 0
0.0833333358 -0.00166666671 0
0.0799999982 -0.00166666671 0
0.0766666681 -0.00166666671 0
0.0733333305 -0.00166666671 0
0.0700000003 -0.00166666671 0
0.0666666701 -0.00166666671 0
0.0633333325 -0.00166666671 0
0.0599999987 -0.00166666671 0
0.0566666685 -0.00166666671 0
0.0533333346 -0.00166666671 0
0.0500000007 -0.00166666671 0
0.0466666669 -0.00166666671 0
0.043333333 -0.00166666671 0
0.0399999991 -0.00166666671 0
0.0366666652 -0.00166666671 0
0.0333333351 -0.00166666671 0
0.0299999993 -0.00166666671 0
0.0266666673 -0.00166666671 0
0.0233333334 -0.00166666671 0
0.0199999996 -0.00166666671 0
0.0166666675 -0.00166666671 0
0.0133333337 -0.00166666671 0
0.00999999978 -0.00166666671 0
0.00666666683 -0.00166666671 0
0.00333333341 -0.00166666671 0
0 -0.00166666671 0
0.100000001 -0.00499999989 0
0.0966666639 -0.00499999989 0
0.0933333337 -0.00499999989 0
0.0900000036 -0.00499999989 0
0.086666666 -0.00499999989 0
0.0833333358 -0.00499999989 0
0.0799999982 -0.00499999989 0
0.0766666681 -0.00499999989 0
0.0733333305 -0.00499999989 0
0.0700000003 -0.00499999989 0
0.0666666701 -0.00499999989 0
0.0633333325 -0.00499999989 0
0.0599999987 -0.00499999989 0
0.0566666685 -0.00499999989 0
0.0533333346 -0.00499999989 0
0.0500000007 -0.00499999989 0
0.0466666669 -0.00499999989 0
0.043333333 -0.00499999989 0
0.0399999991 -0.00499999989 0
0.0366666652 -0.00499999989 0
0.0333333351 -0.00499999989 0
0.0299999993 -0.00499999989 0
0.0266666673 -0.00499999989 0
0.0233333334 -0.00499999989 0
0.0199999996 -0.00499999989 0
0.0166666675 -0.00499999989 0
0.0133333337 -0.00499999989 0
0.00999999978 -0.00499999989 0
0.00666666683 -0.00499999989 0
0.00333333341 -0.00499999989 0
0 -0.00499999989 0
0.100000001 -0.00833333377 0
0.0966666639 -0.00833333377 0
0.0933333337 -0.00833333377 0
0.0900000036 -0.00833333377 0
0.086666666 -0.00833333377 0
0.0833333358 -0.00833333377 0
0.0799999982 -0.00833333377 0
0.0766666681 -0.00833333377 0
0.0733333305 -0.00833333377 0
0.0700000003 -0.00833333377 0
0.0666666701 -0.00833333377 0
0.0633333325 -0.00833333377 0
0.0599999987 -0.00833333377 0
0.0566666685 -0.00833333377 0
0.0533333346 -0.00833333377 0
0.0500000007 -0.00833333377 0
0.0466666669 -0.00833333377 0
0.043333333 -0.00833333377 0
0.0399999991 -0.00833333377 0
0.0366666652 -0.00833333377 0
0.0333333351 -0.00833333377 0
0.0299999993 -0.00833333377 0
0.0266666673 -0.00833333377 0
0.0233333334 -0.00833333377 0
0.0199999996 -0.00833333377 0
0.0166666675 -0.00833333377 0
0.0133333337 -0.00833333377 0
0.00999999978 -0.00833333377 0
0.00666666683 -0.00833333377 0
0.00333333341 -0.00833333377 0
0 -0.00833333377 0
0.100000001 -0.0116666667 0
0.0966666639 -0.0116666667 0
0.0933333337 -0.0116666667 0
0.0900000036 -0.0116666667 0
0.086666666 -0.0116666667 0
0.0833333358 -0.0116666667 0
0.0799999982 -0.0116666667 0
0.0766666681 -0.0116666667 0
0.0733333305 -0.0116666667 0
0.0700000003 -0.0116666667 0
0.0666666701 -0.0116666667 0
0.0633333325 -0.0116666667 0
0.0599999987 -0.0116666667 0
0.0566666685 -0.0116666667 0
0.0533333346 -0.0116666667 0
0.0500000007 -0.0116666667 0
0.0466666669 -0.0116666667 0
0.043333333 -0.0116666667 0
0.0399999991 -0.0116666667 0
0.0366666652 -0.0116666667 0
0.0333333351 -0.0116666667 0
0.0299999993 -0.0116666667 0
0.0266666673 -0.0116666667 0
0.0233333334 -0.0116666667 0
0.0199999996 -0.0116666667 0
0.0166666675 -0.0116666667 0
0.0133333337 -0.0116666667 0
0.00999999978 -0.0116666667 0
0.00666666683 -0.0116666667 0
0.00333333341 -0.0116666667 0
0 -0.0116666667 0
0.100000001 -0.0149999997 0
0.0966666639 -0.0149999997 0
0.0933333337 -0.0149999997 0
0.0900000036 -0.0149999997 0
0.086666666 -0.0149999997 0
0.0833333358 -0.0149999997 0
0.0799999982 -0.0149999997 0
0.0766666681 -0.0149999997 0
0.0733333305 -0.0149999997 0
0.0700000003 -0.0149999997 0
0.0666666701 -0.0149999997 0
0.0633333325 -0.0149999997 0
0.0599999987 -0.0149999997 0
0.0566666685 -0.0149999997 0
0.0533333346 -0.0149999997 0
0.0500000007 -0.0149999997 0
0.0466666669 -0.0149999997 0
0.043333333 -0.0149999997 0
0.0399999991 -0.0149999997 0
0.0366666652 -0.0149999997 0
0.0333333351 -0.0149999997 0
0.0299999993 -0.0149999997 0
0.0266666673 -0.0149999997 0
0.0233333334 -0.0149999997 0
0.0199999996 -0.0149999997 0
0.0166666675 -0.0149999997 0
0.0133333337 -0.0149999997 0
0.00999999978 -0.0149999997 0
0.00666666683 -0.0149999997 0
0.00333333341 -0.0149999997 0
0 -0.0149999997 0
0.100000001 -0.0183333326 0
0.0966666639 -0.0183333326 0
0.0933333337 -0.0183333326 0
0.0900000036 -0.0183333326 0
0.086666666 -0.0183333326 0
0.0833333358 -0.0183333326 0
0.0799999982 -0.0183333326 0
0.0766666681 -0.0183333326 0
0.0733333305 -0.0183333326 0
0.0700000003 -0.0183333326 0
0.0666666701 -0.0183333326 0
0.0633333325 -0.0183333326 0
0.0599999987 -0.0183333326 0
0.0566666685 -0.0183333326 0
0.0533333346 -0.0183333326 0
0.0500000007 -0.0183333326 0
0.0466666669 -0.0183333326 0
0.043333333 -0.0183333326 0
0.0399999991 -0.0183333326 0
0.0366666652 -0.0183333326 0
0.0333333351 -0.0183333326 0
0.0299999993 -0.0183333326 0
0.0266666673 -0.0183333326 0
0.0233333334 -0.0183333326 0
0.0199999996 -0.0183333326 0
0.0166666675 -0.0183333326 0
0.0133333337 -0.0183333326 0
0.00999999978 -0.0183333326 0
0.00666666683 -0.0183333326 0
0.00333333341 -0.0183333326 0
0 -0.0183333326 0
0.100000001 -0.0216666665 0
0.0966666639 -0.0216666665 0
0.0933333337 -0.0216666665 0
0.0900000036 -0.0216666665 0
0.086666666 -0.0216666665 0
0.0833333358 -0.0216666665 0
0.0799999982 -0.0216666665 0
0.0766666681 -0.0216666665 0
0.0733333305 -0.0216666665 0
0.0700000003 -0.0216666665 0
0.0666666701 -0.0216666665 0
0.0633333325 -0.0216666665 0
0.0599999987 -0.0216666665 0
0.0566666685 -0.0216666665 0
0.0533333346 -0.0216666665 0
0.0500000007 -0.0216666665 0
0.0466666669 -0.0216666665 0
0.043333333 -0.0216666665 0
0.0399999991 -0.0216666665 0
0.0366666652 -0.0216666665 0
0.0333333351 -0.0216666665 0
0.0299999993 -0.0216666665 0
0.0266666673 -0.0216666665 0
0.0233333334 -0.0216666665 0
0.0199999996 -0.0216666665 0
0.0166666675 -0.0216666665 0
0.0133333337 -0.0216666665 0
0.00999999978 -0.0216666665 0
0.00666666683 -0.0216666665 0
0.00333333341 -0.0216666665 0
0 -0.0216666665 0
0.100000001 -0.0250000004 0
0.0966666639 -0.0250000004 0
0.0933333337 -0.0250000004 0
0.0900000036 -0.0250000004 0
0.086666666 -0.0250000004 0
0.0833333358 -0.0250000004 0
0.0799999982 -0.0250000004 0
0.0766666681 -0.0250000004 0
0.0733333305 -0.0250000004 0
0.0700000003 -0.0250000004 0
0.0666666701 -0.0250000004 0
0.0633333325 -0.0250000004 0
0.0599999987 -0.0250000004 0
0.0566666685 -0.0250000004 0
0.0533333346 -0.0250000004 0
0.0500000007 -0.0250000004 0
0.0466666669 -0.0250000004 0
0.043333333 -0.0250000004 0
0.0399999991 -0.0250000004 0
0.0366666652 -0.0250000004 0
0.0333333351 -0.0250000004 0
0.0299999993 -0.0250000004 0
0.0266666673 -0.0250000004 0
0.0233333334 -0.0250000004 0
0.0199999996 -0.0250000004 0
0.0166666675 -0.0250000004 0
0.0133333337 -0.0250000004 0
0.00999999978 -0.0250000004 0
0.00666666683 -0.0250000004 0
0.00333333341 -0.0250000004 0
0 -0.0250000004 0
0.100000001 -0.0283333343 0
0.0966666639 -0.0283333343 0
0.0933333337 -0.0283333343 0
0.0900000036 -0.0283333343 0
0.086666666 -0.0283333343 0
0.0833333358 -0.0283333343 0
0.0799999982 -0.0283333343 0
0.0766666681 -0.0283333343 0
0.0733333305 -0.0283333343 0
0.0700000003 -0.0283333343 0
0.0666666701 -0.0283333343 0
0.0633333325 -0.0283333343 0
0.0599999987 -0.0283333343 0
0.0566666685 -0.0283333343 0
0.0533333346 -0.0283333343 0
0.0500000007 -0.0283333343 0
0.0466666669 -0.0283333343 0
0.043333333 -0.0283333343 0
0.0399999991 -0.0283333343 0
0.0366666652 -0.0283333343 0
0.0333333351 -0.0283333343 0
0.0299999993 -0.0283333343 0
0.0266666673 -0.0283333343 0
0.0233333334 -0.0283333343 0
0.0199999996 -0.0283333343 0
0.0166666675 -0.0283333343 0
0.0133333337 -0.0283333343 0
0.00999999978 -0.0283333343 0
0.00666666683 -0.0283333343 0
0.00333333341 -0.0283333343 0
0 -0.0283333343 0
0.100000001 -0.0316666663 0
[...]
POINT_DATA 961
SCALARS Temp float 1
LOOKUP_TABLE default
238.60706480588053
207.15513775945027
188.3618805834785
178.69534009176482
174.3639978718844
172.64350465653592
172.02625176046752
171.8227911326456
171.7602730696091
171.74215298189017
171.7371519794206
171.73582770790694
171.73548922334797
171.73540534882403
171.7353853318124
171.7353816550012
171.73538533181122
171.73540534881866
171.73548922352546
171.7358277086569
171.73715197619003
171.7421529860399
171.76027310485193
171.82279112250635
172.0262521215296
172.6435039876391
174.3639989875699
178.69533559259304
188.36188257393067
207.1551650056344
238.60706462388973
207.1551669002292
174.67180736930936
155.25795011241092
145.26929421972233
140.7921638585622
139.01317492061418
138.37473562465556
138.16423078329393
138.09953135954942
138.08077464383072
138.07559685110445
138.07422550698473
138.07387493112884
138.07378804713366
138.0737673090865
138.0737634994637
138.07376730908516
138.07378804712818
138.07387493131282
138.07422550776138
138.0755968477595
138.08077464812655
138.09953139602493
138.16423077280137
138.3747359981529
139.01317422886308
140.7921650119598
145.26928956977966
155.2579521687957
174.67183551164143
207.15516671175388
188.3618837071972
155.25792265756348
135.4631420523895
125.27157393252669
120.69992697296215
118.8819087934954
118.22894779478646
118.01349574951557
117.94723088620057
117.92800850856315
117.92269921066881
117.92129232714393
117.92093250105889
117.9208432874498
117.92082198547688
117.92081807122379
117.92082198547557
117.9208432874442
117.92093250124778
117.92129232794089
117.92269920723815
117.92800851296664
117.94723092356685
118.0134957387703
118.22894817688999
118.88190808627886
120.6999281511085
125.27156918605061
135.4631441496017
155.25795134370446
188.36188351399886
178.69533579011372
145.26925878541755
125.2715660671689
114.96814103281527
110.34233348921394
108.50105167120266
107.83910531168257
107.62048644587368
107.55318883645747
107.53365100016029
107.52825051809593
107.52681848253917
107.52645199051089
107.52636107104799
107.5263393503639
107.52633535766287
107.52633935036263
107.52636107104229
107.52645199070325
107.52681848335052
107.52825051460546
107.53365100463736
107.55318887441715
107.62048643496215
107.83910569918388
108.50105095458105
110.34233468178249
114.96813623192938
125.27156818638063
145.2692877569937
178.69533559401972
174.36399922411258
140.79213412737454
120.69992505647053
110.34233954977411
105.68909655158087
103.83545747207388
103.16851199442466
102.94805393502816
102.88013294213447
102.86039807787155
102.85493890924613
102.8534902530383
102.85311925251811
102.85302715538053
102.85300514045186
102.85300109193602
102.85300514045058
102.85302715537476
102.85311925271284
102.85349025385922
102.85493890571674
102.86039808239512
102.88013298045654
102.9480539240166
103.16851238498167
103.83545675032703
105.68909775160535
110.34233472184332
120.69992718606137
140.79216322977555
174.36399902655802
172.64350445809987
139.01314352905632
118.88190523192063
108.50105608456843
103.83545579865049
101.97595450989292
101.30650955392804
101.08508454452844
101.01682032084089
100.99697238534971
100.99147827753839
100.99001940019676
100.98964554664701
100.98955268520068
100.9895304750993
100.98952638899745
100.98953047509798
100.98955268519471
100.98964554684318
100.99001940102364
100.9914782739856
100.99697238990042
101.01682035936577
101.0850845334618
101.30650994604484
101.97595378564077
103.83545700210934
108.5010512446936
118.88190736585277
139.01317268462822
172.64350425993038
172.02625230632498
138.37470498197564
118.228945017858
107.83911052767284
103.16851112343736
101.30651036149955
100.63593899608391
100.41405357992673
100.34561718254393
100.32570974861225
100.32019644743885
100.3187317359575
100.31835619761836
100.3182628710442
100.31824053904587
100.31823642904519
100.31824053904438
100.31826287103823
100.31835619781548
100.31873173678783
100.3201964438728
100.3257097531775
100.3456172211723
100.41405356883243
100.63593938891982
101.30650963614391
103.1685123283174
107.83910568305808
118.2289471534253
138.37473415704397
172.02625210793306
171.82279133532828
138.16419977858266
118.01349260851629
107.62049129523056
102.94805269225685
101.08508497965975
100.41405320625132
100.19196860443047
100.1234534446242
100.10351731935762
100.09799430344437
100.0965265069274
100.09615004209282
100.09605645066344
100.09603404713219
100.09602992281371
100.09603404713073
100.09605645065736
100.09615004229047
100.0965265077595
100.09799429987159
100.1035173239299
100.12345348330084
100.19196859332327
100.41405359938813
101.08508425386273
102.94805389767109
107.62048644890305
118.01349474464696
138.16422896020742
171.82279113686485
171.76027329397434
138.09950037508438
117.94722776792517
107.55319370976802
102.8801317228042
101.01682077984567
100.34561683260948
100.12345346851109
100.05490534154302
100.03495652101941
100.0294289750491
100.02795966869076
100.02758273007653
100.0274889977664
100.02746655486405
100.02746242247889
100.02746655486264
100.0274889977604
100.02758273027445
100.02795966952384
100.02942897147314
100.03495652559494
100.0549053802403
100.12345345739843
100.34561722586152
101.01682005388687
102.88013292840313
107.55318886286949
117.94722990423594
138.09952955876037
171.76027309548996
171.74215316295522
138.08074361390314
117.92800534429223
107.53365582700556
102.86039681139216
100.99697279705079
100.32570935117408
100.10351729571947
100.03495647346205
100.0150024817892
100.00947298689084
100.008002996511
100.00762583274441
100.00753203051063
100.00750956731285
100.00750543066054
100.00750956731153
100.00753203050475
100.00762583294252
100.0080029973446
100.00947298331346
100.01500248636606
100.0349565121674
100.1035172846046
100.32570974446675
100.99697207103709
102.86039801705046
107.53365097992928
117.92800748065724
138.0807727981834
171.74215296446522
171.73715215668724
138.07556581706288
117.92269604234055
107.52825534088981
102.85493763859975
100.99147868507474
100.32019604579745
100.09799427560797
100.02942892328748
100.00947298268859
100.00394271178472
100.00247243410065
100.00209517085926
100.00200133625387
100.00197886326595
100.0019747244969
100.00197886326458
100.002001336248
100.00209517105739
100.00247243493439
100.0039427082068
100.00947298726602
100.02942896199576
100.09799426449243
100.32019643910348
100.99147795904366
102.85493884427613
107.52825049376123
117.92269817872105
138.0755950015123
171.73715195819588
171.7358278882198
138.07419447604892
117.92128916204436
107.52682330863932
102.85348898571539
100.99001981108745
100.31873133767584
100.0965264824612
100.02795962030149
100.00800299568387
100.00247243747658
100.00100204758111
100.00062474341729
100.00053089482613
100.00050841742019
100.00050427766729
100.0005084174189
100.00053089482019
100.00062474361549
100.00100204841488
100.00247243389833
100.00800300026147
100.02795965901088
100.09652647134546
100.3187317309861
100.99001908505114
102.85349019139693
107.52681846149616
117.92129129842901
138.0742236605436
171.73582768972818
171.7354894032552
138.07384389976045
117.92092933552676
107.5264568161762
102.85311798474986
100.98964595709157
100.31835579888664
100.0961500171768
100.02758268123665
100.00762583146691
100.00209517378474
100.00062474296682
100.00024742308621
100.00015356884883
100.00013108957728
100.00012694939598
100.00013108957596
100.0001535688429
100.0002474232844
100.00062474380064
100.00209517020646
100.00762583604454
100.02758271994635
100.09615000606104
100.31835619219817
100.98964523105376
102.85311919043276
107.52645196902914
117.92093147191243
138.07387308426695
171.7354892047634
171.73540552858566
138.07375701561133
117.92084012176237
107.5263658965566
102.85302588745228
100.98955309548452
100.3182624721504
100.09605642558516
100.02748894876399
100.00753202907057
100.0020013390169
100.0005308942131
100.00015356868623
100.0000597123183
100.00003723231063
100.00003309195506
100.00003723230932
100.00005971231234
100.00015356888436
100.00053089504678
100.0020013354385
100.00753203364825
100.0274889874738
100.0960564144693
100.3182628654622
100.98955236944622
102.85302709313552
107.52636104940848
117.92084225814823
138.07378620012062
171.73540533009378
171.73538551158782
138.0737362775775
117.92081881980391
107.52634417588763
102.85300387253861
100.9895308853985
100.31824014016729
100.09603402206935
100.02746650587709
100.00750956588817
100.00197886604438
100.00050841682261
100.00013108943018
100.00003723232606
100.00001475205342
100.00001061163339
100.00001475205211
100.00003723232011
100.00013108962821
100.00050841765628
100.00197886246595
100.00750957046584
100.02746654458687
100.09603401095345
100.31824053347923
100.98953015936014
102.85300507822193
107.52633932873925
117.92082095618991
138.07376546208755
171.73538531309595
171.73538183478206
138.0737324679603
117.92081490555658
107.52634018319262
102.85299982402877
100.98952679930281
100.31823603017281
100.09602989775713
100.02746237349821
100.00750542924214
100.00197472728156
100.0005042770759
100.00012694925512
100.00003309197675
100.00001061163962
100.0000064712036
100.00001061163833
100.0000330919707
100.00012694945309
100.00050427790953
100.00197472370313
100.0075054338198
100.02746241220797
100.09602988664122
100.31823642348476
100.98952607326444
102.85300102971212
107.52633533604418
117.92081704194263
138.0737616524705
171.7353816362903
171.73538551159132
138.07373627758105
117.92081881980752
107.52634417589138
102.8530038725424
100.98953088540233
100.3182401401712
100.09603402207327
100.02746650588101
100.0075095658921
100.0019788660483
100.00050841682653
100.00013108943409
100.00003723232996
100.00001475205738
100.00001061163738
100.00001475205598
100.00003723232403
100.00013108963208
100.00050841766023
100.00197886246991
100.00750957046968
100.02746654459077
100.09603401095731
100.31824053348313
100.989530159364
102.85300507822579
107.52633932874305
117.92082095619358
138.07376546209122
171.73538531309947
171.7354055285993
138.07375701562546
117.92084012177678
107.52636589657132
102.85302588746717
100.98955309549959
100.3182624721655
100.0960564256004
100.02748894877921
100.00753202908578
100.00200133903206
100.00053089422823
100.00015356870142
100.00005971233354
100.00003723232585
100.00003309197024
100.0000372323245
100.00005971232751
100.00015356889958
100.00053089506206
100.00200133545367
100.0075320336633
100.02748898748888
100.09605641448441
100.31826286547731
100.98955236946131
102.85302709315044
107.52636104942322
117.9208422581627
138.0737862001347
171.73540533010737
171.7354894033101
138.07384389981735
117.92092933558517
107.5264568162357
102.85311798481005
100.98964595715216
100.31835579894756
100.09615001723795
100.02758268129791
100.00762583152816
100.00209517384597
100.00062474302811
100.0002474231475
100.00015356891002
100.00013108963847
100.00012694945713
100.00013108963711
100.0001535689041
100.00024742334566
100.00062474386185
100.00209517026764
100.00762583610569
100.02758272000737
100.096150006122
100.31835619225902
100.98964523111434
102.85311919049295
107.52645196908855
117.9209314719707
138.07387308432368
171.73548920481826
171.73582788845775
138.07419447629528
117.92128916229711
107.52682330889661
102.85348898597576
100.99001981134965
100.31873133793914
100.09652648272512
100.02795962056575
100.00800299594825
100.00247243774098
100.00100204784562
100.00062474368177
100.00053089509052
100.00050841768454
100.00050427793163
100.0005084176832
100.00053089508461
100.00062474387983
100.00100204867927
100.00247243416267
100.00800300052573
100.027959659275
100.09652647160922
100.31873173124941
100.9900190853133
102.85349019165719
107.52681846175331
117.92129129868161
138.07422366078984
171.7358276899659
171.73715215914544
138.07556581960822
117.92269604495094
107.52825534354554
102.85493764128505
100.99147868777783
100.32019604851038
100.09799427832615
100.02942892600805
100.00947298541031
100.00394271450682
100.00247243682291
100.0020951735816
100.00200133897613
100.00197886598818
100.00197472721909
100.00197886598683
100.0020013389701
100.0020951737796
100.00247243765654
100.00394271092878
100.00947298998757
100.02942896471626
100.09799426721058
100.3201964418165
100.9914779617467
102.85493884696132
107.52825049641689
117.92269818133119
138.0755950040574
171.7371519606539
171.7421531607958
138.08074361166766
117.92800534200053
107.53365582467538
102.8603968090375
100.99697279468184
100.32570934879736
100.10351729333908
100.03495647107994
100.0150024794063
100.00947298450775
100.00800299412779
100.00762583036105
100.00753202812722
100.00750956492944
100.00750542827714
100.00750956492806
100.00753202812132
100.00762583055912
100.00800299496125
100.00947298093024
100.01500248398317
100.03495650978527
100.10351728222426
100.32570974209015
100.99697206866811
102.86039801469585
107.53365097759901
117.92800747836544
138.08077279594767
171.74215296230574
171.7602733240778
138.099500406241
117.94722779984308
107.55319374219327
102.88013175553972
101.01682081275482
100.34561686560741
100.1234535015505
100.05490537460031
100.03495655408366
100.02942900811595
100.02795970175838
100.02758276314438
100.02748903083427
100.02746658793201
100.02746245554694
100.0274665879307
100.02748903082838
100.02758276334235
100.0279597025915
100.02942900453994
100.03495655865916
100.05490541329753
100.12345349043787
100.34561725885942
101.01682008679603
102.88013296113861
107.55318889529474
117.94722993615382
138.09952958991693
171.76027312559344
171.82279130943672
138.16419975179085
118.01349258108448
107.62049126738192
102.94805266416037
101.08508495142917
100.4140531779547
100.1919685761041
100.12345341628567
100.10351729101444
100.09799427509942
100.09652647858192
100.09615001374709
100.09605642231763
100.09603401878644
100.096029894468
100.09603401878513
100.09605642231179
100.0961500139449
100.09652647941415
100.0979942715268
100.10351729558677
100.1234534549623
100.19196856499691
100.4140535710915
101.08508422563212
102.94805386957461
107.62048642105442
118.01349471721521
138.1642289334157
171.82279111097336
172.0262527281671
138.37470541834696
118.22894546428647
107.83911098041101
103.16851157974902
101.306510819636
100.63593945506234
100.41405403925785
100.34561764201025
100.32571020812634
100.32019690696858
100.31873219549209
100.31835665715427
100.31826333058052
100.31824099858231
100.31823688858164
100.31824099858096
100.31826333057468
100.3183566573515
100.31873219632254
100.32019690340269
100.32571021269152
100.34561768063854
100.41405402816346
100.63593984789811
101.3065100942803
103.16851278462902
107.83910613579627
118.22894759985377
138.37473459341535
172.02625252977498
172.64350479624068
139.0131438787202
118.88190558932274
108.5010564466233
103.8354561632021
101.97595487564169
101.30650992019255
101.08508491099441
101.01682068737895
100.99697275191164
100.99147864410774
100.99001976676826
100.98964591321894
100.98955305177283
100.98953084167155
100.98952675556973
100.98953084167023
100.98955305176705
100.9896459134153
100.99001976759514
100.9914786405549
100.99697275646241
101.0168207259037
101.0850848999276
101.3065103123092
101.97595415138946
103.83545736666089
108.50105160674848
118.88190772325495
139.01317303429204
172.6435045980711
174.36399777885893
140.79213263322157
120.6999235301361
110.34233800460775
105.68909499662493
103.83545591257904
103.16851043303768
102.94805237292464
102.88013137978136
102.86039651543763
102.85493734678755
102.8534886905726
102.85311769005037
102.85302559291227
102.8530035779835
102.8529995294676
102.85300357798225
102.8530255929066
102.85311769024517
102.85348869139362
102.85493734325827
102.86039651996118
102.88013141810337
102.94805236191289
103.16851082359462
103.83545519083198
105.68909619664932
110.3423331766769
120.69992565972684
140.79216173562247
174.36399758130426
178.69533952355135
145.26926264381694
125.27157000530065
114.96814501567142
110.3423374941739
108.50105568586595
107.8391093301751
107.62049046574322
107.55319285678442
107.53365502062907
107.52825453860638
107.52682250306118
107.52645601103598
107.52636509157387
107.52634337088998
107.52633937818898
107.52634337088868
107.5263650915682
107.52645601122829
107.52682250387251
107.52825453511582
107.5336550251061
107.55319289474375
107.62049045483143
107.83910971767608
108.50105496924397
110.34233868674225
114.96814021478545
125.2715721245121
145.26929161539292
178.69533932745728
188.36187903730473
155.25791783247124
135.46313713027118
125.2715689574584
120.69992197255496
118.881903782342
118.22894277953664
118.01349073284084
117.94722586906697
117.92800349129087
117.9226941933569
117.92128730982121
117.92092748373325
117.92083827012338
117.9208169681503
117.92081305389712
117.92081696814901
117.92083827011784
117.92092748392214
117.92128731061797
117.92269418992616
117.92800349569428
117.94722590643302
118.01349072209521
118.22894316163982
118.88190307512505
120.69992315070107
125.27156421098209
135.4631392274831
155.2579465186122
188.36187884410626
207.15518966303185
174.671830880954
155.2579740787329
145.26931842485251
140.79218817320853
139.01319927978673
138.3747600001567
138.16425516428583
138.09955574225884
138.08079902704583
138.0756212344612
138.07424989037932
138.0738993145333
138.07381243054056
138.0737916924937
138.07378788287116
138.07379169249265
138.07381243053504
138.07389931471724
138.074249891156
138.0756212311161
138.0807990313416
138.09955577873413
138.16425515379305
138.37476037365377
139.0131985880354
140.7921893266059
145.26931377490965
155.25797613511722
174.67185902328518
207.1551894745564
238.60706461066246
207.155137557594
188.36188037729002
178.69533988319972
174.36399766223846
172.64350444647465
172.02625155026675
171.82279092240228
171.7602728593538
171.7421527716316
171.73715176916113
171.7358274976473
171.73548901308817
171.73540513856423
171.73538512155255
171.73538144474136
171.73538512155142
171.73540513855903
171.73548901326586
171.73582749839716
171.73715176593055
171.7421527757812
171.76027289459648
171.82279091226283
172.02625191132861
172.64350377757773
174.36399877792377
178.69533538402766
188.361882367742
207.15516480377815
238.60706442867146

