# vtk DataFile Version 2.0
Unstructured Grid Example
ASCII
DATASET UNSTRUCTURED_GRID

POINTS 961 float
0.100000001 0.00499999989 0
0.0966666639 0.00499999989 0
0.0933333337 0.00499999989 0
0.0900000036 0.00499999989 0
0.086666666 0.00499999989 0
0.0833333358 0.00499999989 0
0.0799999982 0.00499999989 0
0.0766666681 0.00499999989 0
0.0733333305 0.00499999989 0
0.0700000003 0.00499999989 0
0.0666666701 0.00499999989 0
0.0633333325 0.00499999989 0
0.0599999987 0.00499999989 0
0.0566666685 0.00499999989 0
0.0533333346 0.00499999989 0
0.0500000007 0.00499999989 0
0.0466666669 0.00499999989 0
0.043333333 0.00499999989 0
0.0399999991 0.00499999989 0
0.0366666652 0.00499999989 0
0.0333333351 0.00499999989 0
0.0299999993 0.00499999989 0
0.0266666673 0.00499999989 0
0.0233333334 0.00499999989 0
0.0199999996 0.00499999989 0
0.0166666675 0.00499999989 0
0.0133333337 0.00499999989 0
0.00999999978 0.00499999989 0
0.00666666683 0.00499999989 0
0.00333333341 0.00499999989 0
0 0.00499999989 0
0.100000001 0.00166666671 0
0.0966666639 0.00166666671 0
0.0933333337 0.00166666671 0
0.0900000036 0.00166666671 0
0.086666666 0.00166666671 0
0.0833333358 0.00166666671 0
0.0799999982 0.00166666671 0
0.0766666681 0.00166666671 0
0.0733333305 0.00166666671 0
0.0700000003 0.00166666671 0
0.0666666701 0.00166666671 0
0.0633333325 0.00166666671 0
0.0599999987 0.00166666671 0
0.0566666685 0.00166666671 0
0.0533333346 0.00166666671 0
0.0500000007 0.00166666671 0
0.0466666669 0.00166666671 0
0.043333333 0.00166666671 0
0.0399999991 0.00166666671 0
0.0366666652 0.00166666671 0
0.0333333351 0.00166666671 0
0.0299999993 0.00166666671 0
0.0266666673 0.00166666671 0
0.0233333334 0.00166666671 0
0.0199999996 0.00166666671 0
0.0166666675 0.00166666671 0
0.0133333337 0.00166666671 0
0.00999999978 0.00166666671 0
0.00666666683 0.00166666671 0
0.00333333341 0.00166666671 0
0 0.00166666671 0
0.100000001 -0.00166666671 0
0.0966666639 -0.00166666671 0
0.0933333337 -0.00166666671 0
0.0900000036 -0.00166666671 0
0.086666666 -0.00166666671 0
0.0833333358 -0.00166666671 0
0.0799999982 -0.00166666671 0
0.0766666681 -0.00166666671 0
0.0733333305 -0.00166666671 0
0.0700000003 -0.00166666671 0
0.0666666701 -0.00166666671 0
0.0633333325 -0.00166666671 0
0.0599999987 -0.00166666671 0
0.0566666685 -0.00166666671 0
0.0533333346 -0.00166666671 0
0.0500000007 -0.00166666671 0
0.0466666669 -0.00166666671 0
0.043333333 -0.00166666671 0
0.0399999991 -0.00166666671 0
0.0366666652 -0.00166666671 0
0.0333333351 -0.00166666671 0
0.0299999993 -0.00166666671 0
0.0266666673 -0.00166666671 0
0.0233333334 -0.00166666671 0
0.0199999996 -0.00166666671 0
0.0166666675 -0.00166666671 0
0.0133333337 -0.00166666671 0
0.00999999978 -0.00166666671 0
0.00666666683 -0.00166666671 0
0.00333333341 -0.00166666671 0
0 -0.00166666671 0
0.100000001 -0.00499999989 0
0.0966666639 -0.00499999989 0
0.0933333337 -0.00499999989 0
0.0900000036 -0.00499999989 0
0.086666666 -0.00499999989 0
0.0833333358 -0.00499999989 0
0.0799999982 -0.00499999989 0
0.0766666681 -0.00499999989 0
0.0733333305 -0.00499999989 0
0.0700000003 -0.00499999989 0
0.0666666701 -0.00499999989 0
0.0633333325 -0.00499999989 0
0.0599999987 -0.00499999989 0
0.0566666685 -0.00499999989 0
0.0533333346 -0.00499999989 0
0.0500000007 -0.00499999989 0
0.0466666669 -0.00499999989 0
0.043333333 -0.00499999989 0
0.0399999991 -0.00499999989 0
0.0366666652 -0.00499999989 0
0.0333333351 -0.00499999989 0
0.0299999993 -0.00499999989 0
0.0266666673 -0.00499999989 0
0.0233333334 -0.00499999989 0
0.0199999996 -0.00499999989 0
0.0166666675 -0.00499999989 0
0.0133333337 -0.00499999989 0
0.00999999978 -0.00499999989 0
0.00666666683 -0.00499999989 0
0.00333333341 -0.00499999989 0
0 -0.00499999989 0
0.100000001 -0.00833333377 0
0.0966666639 -0.00833333377 0
0.0933333337 -0.00833333377 0
0.0900000036 -0.00833333377 0
0.086666666 -0.00833333377 0
0.0833333358 -0.00833333377 0
0.0799999982 -0.00833333377 0
0.0766666681 -0.00833333377 0
0.0733333305 -0.00833333377 0
0.0700000003 -0.00833333377 0
0.0666666701 -0.00833333377 0
0.0633333325 -0.00833333377 0
0.0599999987 -0.00833333377 0
0.0566666685 -0.00833333377 0
0.0533333346 -0.00833333377 0
0.0500000007 -0.00833333377 0
0.0466666669 -0.00833333377 0
0.043333333 -0.00833333377 0
0.0399999991 -0.00833333377 0
0.0366666652 -0.00833333377 0
0.0333333351 -0.00833333377 0
0.0299999993 -0.00833333377 0
0.0266666673 -0.00833333377 0
0.0233333334 -0.00833333377 0
0.0199999996 -0.00833333377 0
0.0166666675 -0.00833333377 0
0.0133333337 -0.00833333377 0
0.00999999978 -0.00833333377 0
0.00666666683 -0.00833333377 0
0.00333333341 -0.00833333377 0
0 -0.00833333377 0
0.100000001 -0.0116666667 0
0.0966666639 -0.0116666667 0
0.0933333337 -0.0116666667 0
0.0900000036 -0.0116666667 0
0.086666666 -0.0116666667 0
0.0833333358 -0.0116666667 0
0.0799999982 -0.0116666667 0
0.0766666681 -0.0116666667 0
0.0733333305 -0.0116666667 0
0.0700000003 -0.0116666667 0
0.0666666701 -0.0116666667 0
0.0633333325 -0.0116666667 0
0.0599999987 -0.0116666667 0
0.0566666685 -0.0116666667 0
0.0533333346 -0.0116666667 0
0.0500000007 -0.0116666667 0
0.0466666669 -0.0116666667 0
0.043333333 -0.0116666667 0
0.0399999991 -0.0116666667 0
0.0366666652 -0.0116666667 0
0.0333333351 -0.0116666667 0
0.0299999993 -0.0116666667 0
0.0266666673 -0.0116666667 0
0.0233333334 -0.0116666667 0
0.0199999996 -0.0116666667 0
0.0166666675 -0.0116666667 0
0.0133333337 -0.0116666667 0
0.00999999978 -0.0116666667 0
0.00666666683 -0.0116666667 0
0.00333333341 -0.0116666667 0
0 -0.0116666667 0
0.100000001 -0.0149999997 0
0.0966666639 -0.0149999997 0
0.0933333337 -0.0149999997 0
0.0900000036 -0.0149999997 0
0.086666666 -0.0149999997 0
0.0833333358 -0.0149999997 0
0.0799999982 -0.0149999997 0
0.0766666681 -0.0149999997 0
0.0733333305 -0.0149999997 0
0.0700000003 -0.0149999997 0
0.0666666701 -0.0149999997 0
0.0633333325 -0.0149999997 0
0.0599999987 -0.0149999997 0
0.0566666685 -0.0149999997 0
0.0533333346 -0.0149999997 0
0.0500000007 -0.0149999997 0
0.0466666669 -0.0149999997 0
0.043333333 -0.0149999997 0
0.0399999991 -0.0149999997 0
0.0366666652 -0.0149999997 0
0.0333333351 -0.0149999997 0
0.0299999993 -0.0149999997 0
0.0266666673 -0.0149999997 0
0.0233333334 -0.0149999997 0
0.0199999996 -0.0149999997 0
0.0166666675 -0.0149999997 0
0.0133333337 -0.0149999997 0
0.00999999978 -0.0149999997 0
0.00666666683 -0.0149999997 0
0.00333333341 -0.0149999997 0
0 -0.0149999997 0
0.100000001 -0.0183333326 0
0.0966666639 -0.0183333326 0
0.0933333337 -0.0183333326 0
0.0900000036 -0.0183333326 0
0.086666666 -0.0183333326 0
0.0833333358 -0.0183333326 0
0.0799999982 -0.0183333326 0
0.0766666681 -0.0183333326 0
0.0733333305 -0.0183333326 0
0.0700000003 -0.0183333326 0
0.0666666701 -0.0183333326 0
0.0633333325 -0.0183333326 0
0.0599999987 -0.0183333326 0
0.0566666685 -0.0183333326 0
0.0533333346 -0.0183333326 0
0.0500000007 -0.0183333326 0
0.0466666669 -0.0183333326 0
0.043333333 -0.0183333326 0
0.0399999991 -0.0183333326 0
0.0366666652 -0.0183333326 0
0.0333333351 -0.0183333326 0
0.0299999993 -0.0183333326 0
0.0266666673 -0.0183333326 0
0.0233333334 -0.0183333326 0
0.0199999996 -0.0183333326 0
0.0166666675 -0.0183333326 0
0.0133333337 -0.0183333326 0
0.00999999978 -0.0183333326 0
0.00666666683 -0.0183333326 0
0.00333333341 -0.0183333326 0
0 -0.0183333326 0
0.100000001 -0.0216666665 0
0.0966666639 -0.0216666665 0
0.0933333337 -0.0216666665 0
0.0900000036 -0.0216666665 0
0.086666666 -0.0216666665 0
0.0833333358 -0.0216666665 0
0.0799999982 -0.0216666665 0
0.0766666681 -0.0216666665 0
0.0733333305 -0.0216666665 0
0.0700000003 -0.0216666665 0
0.0666666701 -0.0216666665 0
0.0633333325 -0.0216666665 0
0.0599999987 -0.0216666665 0
0.0566666685 -0.0216666665 0
0.0533333346 -0.0216666665 0
0.0500000007 -0.0216666665 0
0.0466666669 -0.0216666665 0
0.043333333 -0.0216666665 0
0.0399999991 -0.0216666665 0
0.0366666652 -0.0216666665 0
0.0333333351 -0.0216666665 0
0.0299999993 -0.0216666665 0
0.0266666673 -0.0216666665 0
0.0233333334 -0.0216666665 0
0.0199999996 -0.0216666665 0
0.0166666675 -0.0216666665 0
0.0133333337 -0.0216666665 0
0.00999999978 -0.0216666665 0
0.00666666683 -0.0216666665 0
0.00333333341 -0.0216666665 0
0 -0.0216666665 0
0.100000001 -0.0250000004 0
0.0966666639 -0.0250000004 0
0.0933333337 -0.0250000004 0
0.0900000036 -0.0250000004 0
0.086666666 -0.0250000004 0
0.0833333358 -0.0250000004 0
0.0799999982 -0.0250000004 0
0.0766666681 -0.0250000004 0
0.0733333305 -0.0250000004 0
0.0700000003 -0.0250000004 0
0.0666666701 -0.0250000004 0
0.0633333325 -0.0250000004 0
0.0599999987 -0.0250000004 0
0.0566666685 -0.0250000004 0
0.0533333346 -0.0250000004 0
0.0500000007 -0.0250000004 0
0.0466666669 -0.0250000004 0
0.043333333 -0.0250000004 0
0.0399999991 -0.0250000004 0
0.0366666652 -0.0250000004 0
0.0333333351 -0.0250000004 0
0.0299999993 -0.0250000004 0
0.0266666673 -0.0250000004 0
0.0233333334 -0.0250000004 0
0.0199999996 -0.0250000004 0
0.0166666675 -0.0250000004 0
0.0133333337 -0.0250000004 0
0.00999999978 -0.0250000004 0
0.00666666683 -0.0250000004 0
0.00333333341 -0.0250000004 0
0 -0.0250000004 0
0.100000001 -0.0283333343 0
0.0966666639 -0.0283333343 0
0.0933333337 -0.0283333343 0
0.0900000036 -0.0283333343 0
0.086666666 -0.0283333343 0
0.0833333358 -0.0283333343 0
0.0799999982 -0.0283333343 0
0.0766666681 -0.0283333343 0
0.0733333305 -0.0283333343 0
0.0700000003 -0.0283333343 0
0.0666666701 -0.0283333343 0
0.0633333325 -0.0283333343 0
0.0599999987 -0.0283333343 0
0.0566666685 -0.0283333343 0
0.0533333346 -0.0283333343 0
0.0500000007 -0.0283333343 0
0.0466666669 -0.0283333343 0
0.043333333 -0.0283333343 0
0.0399999991 -0.0283333343 0
0.0366666652 -0.0283333343 0
0.0333333351 -0.0283333343 0
0.0299999993 -0.0283333343 0
0.0266666673 -0.0283333343 0
0.0233333334 -0.0283333343 0
0.0199999996 -0.0283333343 0
0.0166666675 -0.0283333343 0
0.0133333337 -0.0283333343 0
0.00999999978 -0.0283333343 0
0.00666666683 -0.0283333343 0
0.00333333341 -0.0283333343 0
0 -0.0283333343 0
0.100000001 -0.0316666663 0
[...]
POINT_DATA 961
SCALARS Temp float 1
LOOKUP_TABLE default
341.08465853432097
309.9524768074802
285.19866760184897
266.39017006884905
252.7537095038651
243.32813107112494
237.11878212061362
233.21943125015272
230.88377397289636
229.54812059829192
228.81807829216837
228.43625828690526
228.2451655737755
228.1542383483055
228.11489422950615
228.10402684480934
228.11489422633895
228.15423833995786
228.24516570294352
228.43625856300875
228.81807764019672
229.5481210154988
230.88377568818598
233.2194308394774
237.11878688887367
243.3281258399078
252.7537139625806
266.3901586052987
285.1986706379426
309.9525075965314
341.0846583799496
309.9525096853143
277.6917362743853
252.0401962795495
232.54921830647885
218.41762093208177
208.64953298266644
202.21434345870182
198.17302637727693
195.7522399043027
194.36784784379975
193.61113288750548
193.21534485501488
193.01725230037096
192.9229901041358
192.88220134017388
192.87093464843826
192.88220133689018
192.9229900954817
193.0172524342732
193.2153451412242
193.61113221169668
194.3678482762401
195.75224168214254
198.1730259516322
202.21434840046732
208.64952756125535
218.4176255527494
232.5492064268233
252.04019942578165
277.69176817981685
309.95250952536935
285.19867230798013
252.04016613775673
225.67378104295216
205.63860958492907
191.11152953236072
181.06931524907677
174.45295695758978
170.2974613564308
167.80801610762816
166.38419707198378
165.60583724476624
165.19867709948997
164.99486670459885
164.89787153520336
164.85589557573374
164.84430016578222
164.8558955723543
164.89787152629754
164.99486684237365
165.19867739393766
165.60583654957887
166.38419751676656
167.80801793598258
170.29746091871033
174.45296203870282
181.06930967523883
191.1115342825022
205.6385973731904
225.67378427694737
252.0401989316753
285.1986721436484
266.3901587875553
232.5491708753819
205.638592450906
185.18839354540708
170.35902757997346
160.10673270763192
153.35111377718238
149.10755635476016
146.56496320314673
145.11050495439346
144.3152555820712
143.89918410822187
143.69087389637443
143.5917189625942
143.54880141144545
143.53694470362743
143.54880140798986
143.59171895348888
143.69087403720224
143.89918440913638
144.31525487172735
145.1105054087873
146.5649650706709
149.10755590768952
153.35111896557135
160.10672701677305
170.35903242919514
185.1883810801161
205.6385957517753
232.54920434521955
266.39015861993545
252.75371428478795
218.41758962237898
191.1115294340456
170.35904522885718
155.3089028321302
144.9026740268716
138.0446329224157
133.73603959434587
131.1540179667745
129.67671994869949
128.868816623199
128.44603368401536
128.23431654152756
128.13351799368814
128.0898806894961
128.0778236970237
128.08988068598202
128.13351798443037
128.23431668467217
128.44603398981027
128.86881590146695
129.6767204102757
131.15401986341826
133.73603914033626
138.0446381898509
144.90266825008027
155.30890775382179
170.35903257863015
191.11153278357042
218.41762358301102
252.75371411482442
243.32812811522845
208.64949329223074
181.06930685562062
160.10674206802878
144.9026654311252
134.38869346142906
127.45864721062131
123.10410719758839
120.4940808484084
119.00046768347872
118.18347092022087
117.75583499727162
117.54163885510411
117.43963706882677
117.39547007994128
117.3832652145276
117.395470076384
117.4396370594568
117.54163899993884
117.75583530660423
118.18347019027702
119.00046815020096
120.49408276578704
123.10410673864867
127.45865253375166
134.3886876243361
144.90267040343366
160.10672928906138
181.06931023891713
208.64952759271333
243.32812794367806
237.11878708876833
202.21431174111302
174.45295697323482
153.35113184338974
138.04463304308965
127.45865607821538
120.48024516108559
116.09466944576242
113.46561038424473
111.96083612625273
111.13757557905083
110.70657288437734
110.49064446922985
110.38779598160474
110.34325400227546
110.33094406022536
110.34325399868749
110.38779597215544
110.49064461524934
110.70657319617133
111.13757484342787
111.96083659650742
113.46561231575592
116.094668983471
120.4802505217208
127.45865020070437
138.0446380491438
153.35111897891903
174.4529603788862
202.2143462659427
237.1187869161977
233.21943184300258
198.17298997448754
170.297456687966
149.10756971367175
133.73603485890425
123.10411119569305
116.09466450213164
111.68904767310762
109.04761387563723
107.53552943730142
106.70813447688113
106.27489168167843
106.05780129844855
105.95438037869876
105.9095831528708
105.89720138935324
105.90958314926179
105.95438036919555
106.05780144526554
106.2748919951153
106.70813373749318
107.53552990987849
109.04761581636718
111.68904720863608
116.09466988690242
123.10410529230671
133.73603988643373
149.10755679501818
170.29746010773098
198.1730246405276
233.21943166980859
230.88377634172502
195.7522052518062
167.80801331922126
146.56497852824288
131.15401518157935
120.4940868413461
113.46560742580539
109.04761588408728
106.39848366204251
104.88181480480951
104.05180495340069
103.61713283446377
103.39929438876841
103.29550173709234
103.2505375154822
103.23810854737536
103.25053751185945
103.29550172755393
103.39929453610078
103.61713314895287
104.05180421161984
104.88181527884932
106.39848560852795
109.04761541825906
113.46561282542363
120.49408092213265
131.15402022216006
146.56496557681314
167.80801674748966
195.75224000264154
230.8837761681693
229.54812089690833
194.36781099373056
166.38419206939238
145.11051804428035
129.67671486641245
119.00047136769881
111.96083082772758
107.53552910255333
104.88181245105164
103.36238986521255
102.53079489983321
102.0952480652228
101.87694737522362
101.77292285928152
101.72785363288992
101.7153948366863
101.72785362925855
101.77292284972108
101.87694752287574
102.0952483803583
102.53079415659411
103.362390340135
104.8818144009777
107.53552863591715
111.96083623608158
119.00046543922984
129.67671991457274
145.11050507390945
166.38419550255412
194.36784579318677
229.54812072315283
228.8180779557489
193.61109535076181
165.6058315609347
144.31526799046205
128.86881083354618
118.1834738965666
111.1375695590997
106.70813342156944
104.05180187468677
102.53079417584442
101.69827789462582
101.2622174870403
101.04364259362816
100.93947915722481
100.8943464769009
100.88186956149592
100.89434647326422
100.93947914765108
101.04364274147086
101.26221780255683
101.69827715053441
102.5307946512774
104.05180382658337
106.7081329544724
111.13757497237373
118.18346796291856
128.86881588591746
144.3152550096232
165.60583499678864
193.61113017686841
228.81807778188815
228.43625865471878
193.21530803335116
165.1986721644267
143.89919728943693
128.44602867168186
117.75583876382805
110.70656765647847
106.27489142494822
103.61713055579666
102.0952481441779
101.26221829137766
100.82586856520541
100.6071375309501
100.5028941595748
100.45772464045855
100.44523714862116
100.45772463681882
100.5028941499933
100.60713767890182
100.82586888093758
101.26221754680827
102.09524861989402
103.6171325087751
106.27489095759935
110.70657307240681
117.75583282740477
128.44603372629288
143.89918430306057
165.19867560169854
193.2153428734369
228.4362584808053
228.2451658407682
193.01721536671872
164.99486166094107
143.69088697052317
128.23431141639216
117.54164250962607
110.4906391261915
106.05780092725458
103.39929199466644
101.8769473392051
101.04364328310797
100.60713741573706
100.38832118566292
100.28403373360214
100.23884371458172
100.22635030487368
100.23884371094024
100.28403372401631
100.38832133367433
100.60713773158612
101.04364253828184
101.87694781507155
103.39929394821344
106.05780045977379
110.49064454349055
117.5416365717793
128.23431647214335
143.69087398134315
164.99486509892722
193.01725021382174
228.245165666829
228.15423849829838
192.92295304562452
164.89786636622227
143.59173191050897
128.13351273829716
117.4396405925426
110.38779050558949
105.95437987441534
103.2954992091277
101.77292268944895
100.93947971284098
100.50289391025342
100.28403359945847
100.17972310484534
100.13452227601779
100.12202572934468
100.13452227237532
100.17972309525715
100.28403374750076
100.50289422616238
100.93947896788391
101.77292316539113
103.29550116295847
105.95437940686908
110.38779592356087
117.43963465400205
128.1335177945999
143.59171891997968
164.89786980455057
192.92298789607594
228.15423832434757
228.11489439735143
192.8821642986215
164.85589042557027
143.54881437941486
128.08987545364533
117.39547362386995
110.343248546157
105.9095826688712
103.250535007739
101.72785348347917
100.89434705302422
100.45772441159403
100.238843600913
100.13452229651078
100.08931635906514
100.07681832333522
100.0893163554223
100.13452228692147
100.23884374896963
100.45772472753063
100.89434630800709
101.72785395945584
103.25053696169769
105.90958220129555
110.34325396442713
117.39546768502304
128.0898805101901
143.54880138829603
164.85589386404743
192.88219915052554
228.11489422339585
228.10402702784702
192.87089762220836
164.84429503176585
143.53695768833472
128.0778184779575
117.38326877556872
110.33093862123054
105.89720092265442
103.23810605696018
101.71539470468878
100.88187015507413
100.4452369372072
100.22635020866639
100.1220257673075
100.07681834080641
100.06431986990393
100.07681833716339
100.12202575771781
100.22635035672722
100.4452372531518
100.8818694100398
101.71539518067526
103.23810801095503
105.8972004550703
110.3309440395846
117.3832628366361
128.07782353456975
143.53694469705204
164.8442984702844
192.87093247451426
228.10402685389033
228.11489440472252
192.88216430626323
164.85589043343444
143.54881438745554
128.08987546182072
117.39547363214453
110.34324855450194
105.90958267726397
103.25053501616307
101.72785349192283
100.89434706147978
100.45772442005642
100.23884360937913
100.13452230497903
100.08931636753437
100.07681833180474
100.08931636389141
100.13452229538967
100.23884375743587
100.45772473599305
100.8943463164626
101.72785396789939
103.2505369701216
105.90958220968814
110.3432539727721
117.39546769329766
128.08988051836562
143.54880139633667
164.85589387191166
192.88219915816742
228.11489423076705
228.15423851608477
192.92295306406362
164.8978663851966
143.59173192990673
128.13351275801762
117.43964061249969
110.38779052571338
105.95437989465233
103.29549922943822
101.77292270980546
100.93947973322506
100.50289393065341
100.28403361986724
100.17972312525876
100.1345222964334
100.12202574976095
100.13452229279089
100.17972311567051
100.28403376790959
100.50289424656243
100.93947898826794
101.77292318574747
103.29550118326875
105.95437942710588
110.38779594368471
117.43963467395919
128.13351781432033
143.59171893937742
164.89786982352487
192.922987914515
228.1542383421342
228.2451658787605
193.01721540610347
164.9948617014643
143.69088701194337
128.23431145849275
117.54164255222257
110.49063916913543
106.05780097043214
103.39929203799494
101.87694738262705
101.0436433265855
100.60713745924637
100.38832122918959
100.28403377713784
100.23884375812155
100.22635034841467
100.23884375448006
100.28403376755188
100.38832137720097
100.60713777509525
101.04364258175931
101.87694785849331
103.39929399154165
106.05780050295122
110.49064458643437
117.54163661437578
128.23431651424391
143.69087402276318
164.99486513945007
193.01725025320624
228.24516570482135
228.43625873979533
193.21530812154134
165.19867225515472
143.89919738215642
128.44602876590378
117.75583885913876
110.70656775254646
106.27489152152151
103.61713065269332
102.09524824127304
101.26221838858967
100.82586866248367
100.60713762826416
100.5028942569071
100.45772473779934
100.44523724596438
100.45772473415957
100.50289424732561
100.6071377762156
100.82586897821565
101.26221764402018
102.09524871698893
103.61713260567146
106.27489105417234
110.70657316847463
117.75583292271546
128.4460338205147
143.8991843957799
165.19867569242626
193.215342961627
228.43625856588156
228.81807842288816
193.61109583497765
165.60583205902742
144.31526849940272
128.86881135063263
118.18347441952235
111.13757008611088
106.70813395126683
104.0518024060895
102.53079470828521
101.69827842767253
101.26221802042636
101.04364312719626
100.93947969088548
100.89434701060398
100.88187009521114
100.89434700696731
100.9394796813116
101.04364327503886
101.26221833594279
101.69827768358098
102.53079518371797
104.05180435798596
106.70813348416964
111.13757549938491
118.18346848587427
128.86881640300385
144.31525551856384
165.6058354948813
193.6111306610839
228.81807824902722
229.54812064590158
194.36781073355587
166.3841918017837
145.11051777087667
129.67671458867258
119.00047108684753
111.96083054473662
107.53552881815307
104.8818121657619
103.36238957938484
102.53079461369359
102.09524777890972
101.87694708881813
101.77292257282932
101.72785334641645
101.71539455020675
101.72785334278502
101.77292256326882
101.8769472364702
102.09524809404516
102.53079387045443
103.36239005430717
104.88181411568792
107.53552835151686
111.96083595309071
119.00046515837852
129.67671963683296
145.11050480050577
166.38419523494542
194.36784553301197
229.5481204721459
230.88377783712036
195.7522068017347
167.8080149131926
146.56498015636842
131.1540168350989
120.49408851294952
113.46560910973632
109.04761757606043
106.39848535903764
104.88181650480706
104.05180665511806
103.61713453712532
103.39929609192633
103.29550344049794
103.25053921899958
103.23811025092449
103.25053921537699
103.29550343095966
103.39929623925876
103.61713485161454
104.05180591333729
104.88181697884689
106.39848730552306
109.04761711023227
113.46561450935445
120.49408259373602
131.15402187567958
146.5649672049388
167.808018341461
195.75224155256996
230.8837776635648
233.21943105301446
198.1729891557155
170.29745584599752
149.10756885376648
133.7360339857096
123.10411031307416
116.09466361311921
111.68904677994686
109.04761297990156
107.53552854003607
106.70813357874549
106.27489078306839
106.05780039959087
105.95437947971841
105.9095822538355
105.89720049030252
105.90958225022676
105.9543794702155
106.05780054640809
106.27489109650557
106.70813283935776
107.53552901261328
109.04761492063147
111.68904631547531
116.09466899789008
123.10410440968779
133.73603901323892
149.1075559351129
170.2974592657627
198.17302382175546
233.21943087982066
237.1187927187338
202.21431757594368
174.45296297260853
153.35113796944586
138.04463926250074
127.45866236341023
120.48025149058483
116.09467580377694
113.46561675980334
111.9608425121356
111.13758197074914
110.7065792792135
110.49065086568667
110.38780237885672
110.34326039988078
110.33095045792996
110.34326039629303
110.38780236940768
110.49065101170638
110.7065795910077
111.13758123512646
111.9608429823903
113.46561869131457
116.09467534148538
120.48025685121992
127.45865648589916
138.0446442685548
153.35112510497524
174.45296637825982
202.21435210077317
237.11879254616272
243.32813021777963
208.6494954712052
181.06930909580183
160.10674435515844
144.90266775269416
134.38869580713524
127.45864957248357
123.10410956977766
120.4940832269041
119.00047006565615
118.18347330445508
117.75583738260603
117.54164124100167
117.4396394549984
117.39547246623393
117.38326760085413
117.39547246267686
117.43963944562869
117.5416413858367
117.75583769193872
118.18347257451134
119.00047053237854
120.49408514428276
123.10410911083778
127.45865489561356
134.38868997004224
144.90267272500262
160.10673157619112
181.06931247909824
208.64952977168767
243.328130046229
252.75370806461908
218.41758317625636
191.11152280724053
170.35903846374185
155.3088959658131
144.90266708983913
138.04462593821475
133.7360325801113
131.15401093427718
129.67671290558923
128.8688095741892
128.44602663186572
128.23430948777843
128.1335109391649
128.0898736346328
128.07781664206567
128.08987363111882
128.13351092990732
128.2343096309233
128.44602693766075
128.8688088524573
129.67671336716552
131.15401283092095
133.73603212610143
138.0446312056498
144.90266131304753
155.30890088750456
170.35902581351476
191.11152615676522
218.4176171368885
252.75370789465526
266.39016787541055
232.54918029310167
205.6386021318661
185.18840342734106
170.35903760848026
160.10674283816218
153.35112397546385
149.10756659596942
146.56497347032007
145.11051523656926
144.31526587253694
143.89919440307267
143.69088419344482
143.59172926073268
143.54881171005047
143.5369550023621
143.548811706595
143.59172925162747
143.69088433427288
143.89919470398712
144.31526516219316
145.11051569096293
146.56497533784375
149.10756614889826
153.3511291638522
160.10673714730277
170.35904245770163
185.18839096204988
205.6386054327351
232.54921376293873
266.3901677077905
285.19866450873826
252.04015805559044
225.67377273534754
205.63860110555294
191.11152092801694
181.06930655800113
174.4529482091093
170.2974525717127
167.8080073010808
166.38418825287738
165.6058284187515
165.1986682698381
164.99485787311454
164.89786270284145
164.8558867429899
164.84429133293253
164.8558867396106
164.89786269393568
164.99485801088952
165.1986685642859
165.60582772356415
166.38418869766
167.80800912943496
170.29745213399178
174.4529532902217
181.0693009841625
191.11152567815796
205.6385888938138
225.6737759693424
252.04019084950903
285.1986643444062
309.9525354292469
277.6917629517628
252.0402236998091
232.54924629187704
218.417649327826
208.64956166254547
202.2143723261422
198.1730553627687
195.75226896068037
194.36787694082082
193.61116200680328
193.2153739859971
193.0172814372182
192.9230192437817
192.8822304810334
192.87096378963392
192.88223047775008
192.92301923512773
193.01728157112058
193.21537427220647
193.61116133099452
194.3678773732609
195.75227073851985
198.17305493712382
202.21437726790703
208.64955624113412
218.41765394849298
232.54923441222135
252.04022684604053
277.69179485719303
309.9525352693016
341.08465845165796
309.9524767218339
285.1986675138577
266.39016997910284
252.75370941287068
243.32813097928727
237.11878202823553
233.21943115744565
230.88377387999884
229.54812050528957
228.81807819911106
228.43625819382075
228.24516548067766
228.1542382552018
228.11489413639995
228.1040267517026
228.11489413323298
228.15423824685433
228.24516560984608
228.43625846992413
228.81807754713938
229.54812092249654
230.88377559528826
233.21943074676986
237.11878679649507
243.3281257480698
252.7537138715857
266.39015851555206
285.19867054995103
309.95250751088474
341.0846582972862

