# vtk DataFile Version 2.0
Unstructured Grid Example
ASCII
DATASET UNSTRUCTURED_GRID

POINTS 961 float
0.100000001 0.00499999989 0
0.0966666639 0.00499999989 0
0.0933333337 0.00499999989 0
0.0900000036 0.00499999989 0
0.086666666 0.00499999989 0
0.0833333358 0.00499999989 0
0.0799999982 0.00499999989 0
0.0766666681 0.00499999989 0
0.0733333305 0.00499999989 0
0.0700000003 0.00499999989 0
0.0666666701 0.00499999989 0
0.0633333325 0.00499999989 0
0.0599999987 0.00499999989 0
0.0566666685 0.00499999989 0
0.0533333346 0.00499999989 0
0.0500000007 0.00499999989 0
0.0466666669 0.00499999989 0
0.043333333 0.00499999989 0
0.0399999991 0.00499999989 0
0.0366666652 0.00499999989 0
0.0333333351 0.00499999989 0
0.0299999993 0.00499999989 0
0.0266666673 0.00499999989 0
0.0233333334 0.00499999989 0
0.0199999996 0.00499999989 0
0.0166666675 0.00499999989 0
0.0133333337 0.00499999989 0
0.00999999978 0.00499999989 0
0.00666666683 0.00499999989 0
0.00333333341 0.00499999989 0
0 0.00499999989 0
0.100000001 0.00166666671 0
0.0966666639 0.00166666671 0
0.0933333337 0.00166666671 0
0.0900000036 0.00166666671 0
0.086666666 0.00166666671 0
0.0833333358 0.00166666671 0
0.0799999982 0.00166666671 0
0.0766666681 0.00166666671 0
0.0733333305 0.00166666671 0
0.0700000003 0.00166666671 0
0.0666666701 0.00166666671 0
0.0633333325 0.00166666671 0
0.0599999987 0.00166666671 0
0.0566666685 0.00166666671 0
0.0533333346 0.00166666671 0
0.0500000007 0.00166666671 0
0.0466666669 0.00166666671 0
0.043333333 0.00166666671 0
0.0399999991 0.00166666671 0
0.0366666652 0.00166666671 0
0.0333333351 0.00166666671 0
0.0299999993 0.00166666671 0
0.0266666673 0.00166666671 0
0.0233333334 0.00166666671 0
0.0199999996 0.00166666671 0
0.0166666675 0.00166666671 0
0.0133333337 0.00166666671 0
0.00999999978 0.00166666671 0
0.00666666683 0.00166666671 0
0.00333333341 0.00166666671 0
0 0.00166666671 0
0.100000001 -0.00166666671 0
0.0966666639 -0.00166666671 0
0.0933333337 -0.00166666671 0
0.0900000036 -0.00166666671 0
0.086666666 -0.00166666671 0
0.0833333358 -0.00166666671 0
0.0799999982 -0.00166666671 0
0.0766666681 -0.00166666671 0
0.0733333305 -0.00166666671 0
0.0700000003 -0.00166666671 0
0.0666666701 -0.00166666671 0
0.0633333325 -0.00166666671 0
0.0599999987 -0.00166666671 0
0.0566666685 -0.00166666671 0
0.0533333346 -0.00166666671 0
0.0500000007 -0.00166666671 0
0.0466666669 -0.00166666671 0
0.043333333 -0.00166666671 0
0.0399999991 -0.00166666671 0
0.0366666652 -0.00166666671 0
0.0333333351 -0.00166666671 0
0.0299999993 -0.00166666671 0
0.0266666673 -0.00166666671 0
0.0233333334 -0.00166666671 0
0.0199999996 -0.00166666671 0
0.0166666675 -0.00166666671 0
0.0133333337 -0.00166666671 0
0.00999999978 -0.00166666671 0
0.00666666683 -0.00166666671 0
0.00333333341 -0.00166666671 0
0 -0.00166666671 0
0.100000001 -0.00499999989 0
0.0966666639 -0.00499999989 0
0.0933333337 -0.00499999989 0
0.0900000036 -0.00499999989 0
0.086666666 -0.00499999989 0
0.0833333358 -0.00499999989 0
0.0799999982 -0.00499999989 0
0.0766666681 -0.00499999989 0
0.0733333305 -0.00499999989 0
0.0700000003 -0.00499999989 0
0.0666666701 -0.00499999989 0
0.0633333325 -0.00499999989 0
0.0599999987 -0.00499999989 0
0.0566666685 -0.00499999989 0
0.0533333346 -0.00499999989 0
0.0500000007 -0.00499999989 0
0.0466666669 -0.00499999989 0
0.043333333 -0.00499999989 0
0.0399999991 -0.00499999989 0
0.0366666652 -0.00499999989 0
0.0333333351 -0.00499999989 0
0.0299999993 -0.00499999989 0
0.0266666673 -0.00499999989 0
0.0233333334 -0.00499999989 0
0.0199999996 -0.00499999989 0
0.0166666675 -0.00499999989 0
0.0133333337 -0.00499999989 0
0.00999999978 -0.00499999989 0
0.00666666683 -0.00499999989 0
0.00333333341 -0.00499999989 0
0 -0.00499999989 0
0.100000001 -0.00833333377 0
0.0966666639 -0.00833333377 0
0.0933333337 -0.00833333377 0
0.0900000036 -0.00833333377 0
0.086666666 -0.00833333377 0
0.0833333358 -0.00833333377 0
0.0799999982 -0.00833333377 0
0.0766666681 -0.00833333377 0
0.0733333305 -0.00833333377 0
0.0700000003 -0.00833333377 0
0.0666666701 -0.00833333377 0
0.0633333325 -0.00833333377 0
0.0599999987 -0.00833333377 0
0.0566666685 -0.00833333377 0
0.0533333346 -0.00833333377 0
0.0500000007 -0.00833333377 0
0.0466666669 -0.00833333377 0
0.043333333 -0.00833333377 0
0.0399999991 -0.00833333377 0
0.0366666652 -0.00833333377 0
0.0333333351 -0.00833333377 0
0.0299999993 -0.00833333377 0
0.0266666673 -0.00833333377 0
0.0233333334 -0.00833333377 0
0.0199999996 -0.00833333377 0
0.0166666675 -0.00833333377 0
0.0133333337 -0.00833333377 0
0.00999999978 -0.00833333377 0
0.00666666683 -0.00833333377 0
0.00333333341 -0.00833333377 0
0 -0.00833333377 0
0.100000001 -0.0116666667 0
0.0966666639 -0.0116666667 0
0.0933333337 -0.0116666667 0
0.0900000036 -0.0116666667 0
0.086666666 -0.0116666667 0
0.0833333358 -0.0116666667 0
0.0799999982 -0.0116666667 0
0.0766666681 -0.0116666667 0
0.0733333305 -0.0116666667 0
0.0700000003 -0.0116666667 0
0.0666666701 -0.0116666667 0
0.0633333325 -0.0116666667 0
0.0599999987 -0.0116666667 0
0.0566666685 -0.0116666667 0
0.0533333346 -0.0116666667 0
0.0500000007 -0.0116666667 0
0.0466666669 -0.0116666667 0
0.043333333 -0.0116666667 0
0.0399999991 -0.0116666667 0
0.0366666652 -0.0116666667 0
0.0333333351 -0.0116666667 0
0.0299999993 -0.0116666667 0
0.0266666673 -0.0116666667 0
0.0233333334 -0.0116666667 0
0.0199999996 -0.0116666667 0
0.0166666675 -0.0116666667 0
0.0133333337 -0.0116666667 0
0.00999999978 -0.0116666667 0
0.00666666683 -0.0116666667 0
0.00333333341 -0.0116666667 0
0 -0.0116666667 0
0.100000001 -0.0149999997 0
0.0966666639 -0.0149999997 0
0.0933333337 -0.0149999997 0
0.0900000036 -0.0149999997 0
0.086666666 -0.0149999997 0
0.0833333358 -0.0149999997 0
0.0799999982 -0.0149999997 0
0.0766666681 -0.0149999997 0
0.0733333305 -0.0149999997 0
0.0700000003 -0.0149999997 0
0.0666666701 -0.0149999997 0
0.0633333325 -0.0149999997 0
0.0599999987 -0.0149999997 0
0.0566666685 -0.0149999997 0
0.0533333346 -0.0149999997 0
0.0500000007 -0.0149999997 0
0.0466666669 -0.0149999997 0
0.043333333 -0.0149999997 0
0.0399999991 -0.0149999997 0
0.0366666652 -0.0149999997 0
0.0333333351 -0.0149999997 0
0.0299999993 -0.0149999997 0
0.0266666673 -0.0149999997 0
0.0233333334 -0.0149999997 0
0.0199999996 -0.0149999997 0
0.0166666675 -0.0149999997 0
0.0133333337 -0.0149999997 0
0.00999999978 -0.0149999997 0
0.00666666683 -0.0149999997 0
0.00333333341 -0.0149999997 0
0 -0.0149999997 0
0.100000001 -0.0183333326 0
0.0966666639 -0.0183333326 0
0.0933333337 -0.0183333326 0
0.0900000036 -0.0183333326 0
0.086666666 -0.0183333326 0
0.0833333358 -0.0183333326 0
0.0799999982 -0.0183333326 0
0.0766666681 -0.0183333326 0
0.0733333305 -0.0183333326 0
0.0700000003 -0.0183333326 0
0.0666666701 -0.0183333326 0
0.0633333325 -0.0183333326 0
0.0599999987 -0.0183333326 0
0.0566666685 -0.0183333326 0
0.0533333346 -0.0183333326 0
0.0500000007 -0.0183333326 0
0.0466666669 -0.0183333326 0
0.043333333 -0.0183333326 0
0.0399999991 -0.0183333326 0
0.0366666652 -0.0183333326 0
0.0333333351 -0.0183333326 0
0.0299999993 -0.0183333326 0
0.0266666673 -0.0183333326 0
0.0233333334 -0.0183333326 0
0.0199999996 -0.0183333326 0
0.0166666675 -0.0183333326 0
0.0133333337 -0.0183333326 0
0.00999999978 -0.0183333326 0
0.00666666683 -0.0183333326 0
0.00333333341 -0.0183333326 0
0 -0.0183333326 0
0.100000001 -0.0216666665 0
0.0966666639 -0.0216666665 0
0.0933333337 -0.0216666665 0
0.0900000036 -0.0216666665 0
0.086666666 -0.0216666665 0
0.0833333358 -0.0216666665 0
0.0799999982 -0.0216666665 0
0.0766666681 -0.0216666665 0
0.0733333305 -0.0216666665 0
0.0700000003 -0.0216666665 0
0.0666666701 -0.0216666665 0
0.0633333325 -0.0216666665 0
0.0599999987 -0.0216666665 0
0.0566666685 -0.0216666665 0
0.0533333346 -0.0216666665 0
0.0500000007 -0.0216666665 0
0.0466666669 -0.0216666665 0
0.043333333 -0.0216666665 0
0.0399999991 -0.0216666665 0
0.0366666652 -0.0216666665 0
0.0333333351 -0.0216666665 0
0.0299999993 -0.0216666665 0
0.0266666673 -0.0216666665 0
0.0233333334 -0.0216666665 0
0.0199999996 -0.0216666665 0
0.0166666675 -0.0216666665 0
0.0133333337 -0.0216666665 0
0.00999999978 -0.0216666665 0
0.00666666683 -0.0216666665 0
0.00333333341 -0.0216666665 0
0 -0.0216666665 0
0.100000001 -0.0250000004 0
0.0966666639 -0.0250000004 0
0.0933333337 -0.0250000004 0
0.0900000036 -0.0250000004 0
0.086666666 -0.0250000004 0
0.0833333358 -0.0250000004 0
0.0799999982 -0.0250000004 0
0.0766666681 -0.0250000004 0
0.0733333305 -0.0250000004 0
0.0700000003 -0.0250000004 0
0.0666666701 -0.0250000004 0
0.0633333325 -0.0250000004 0
0.0599999987 -0.0250000004 0
0.0566666685 -0.0250000004 0
0.0533333346 -0.0250000004 0
0.0500000007 -0.0250000004 0
0.0466666669 -0.0250000004 0
0.043333333 -0.0250000004 0
0.0399999991 -0.0250000004 0
0.0366666652 -0.0250000004 0
0.0333333351 -0.0250000004 0
0.0299999993 -0.0250000004 0
0.0266666673 -0.0250000004 0
0.0233333334 -0.0250000004 0
0.0199999996 -0.0250000004 0
0.0166666675 -0.0250000004 0
0.0133333337 -0.0250000004 0
0.00999999978 -0.0250000004 0
0.00666666683 -0.0250000004 0
0.00333333341 -0.0250000004 0
0 -0.0250000004 0
0.100000001 -0.0283333343 0
0.0966666639 -0.0283333343 0
0.0933333337 -0.0283333343 0
0.0900000036 -0.0283333343 0
0.086666666 -0.0283333343 0
0.0833333358 -0.0283333343 0
0.0799999982 -0.0283333343 0
0.0766666681 -0.0283333343 0
0.0733333305 -0.0283333343 0
0.0700000003 -0.0283333343 0
0.0666666701 -0.0283333343 0
0.0633333325 -0.0283333343 0
0.0599999987 -0.0283333343 0
0.0566666685 -0.0283333343 0
0.0533333346 -0.0283333343 0
0.0500000007 -0.0283333343 0
0.0466666669 -0.0283333343 0
0.043333333 -0.0283333343 0
0.0399999991 -0.0283333343 0
0.0366666652 -0.0283333343 0
0.0333333351 -0.0283333343 0
0.0299999993 -0.0283333343 0
0.0266666673 -0.0283333343 0
0.0233333334 -0.0283333343 0
0.0199999996 -0.0283333343 0
0.0166666675 -0.0283333343 0
0.0133333337 -0.0283333343 0
0.00999999978 -0.0283333343 0
0.00666666683 -0.0283333343 0
0.00333333341 -0.0283333343 0
0 -0.0283333343 0
0.100000001 -0.0316666663 0
[...]
POINT_DATA 961
SCALARS Temp float 1
LOOKUP_TABLE default
197.26696105219318
168.05279134315438
155.6091930981102
151.4447444034505
150.2604541107888
149.95699136151774
149.8845358569449
149.86809000092163
149.86449589228943
149.86373315806313
149.86357503372165
149.86354287141384
149.86353643241688
149.8635351606926
149.86353491399367
149.8635348751563
149.8635349139937
149.8635351606925
149.86353643241995
149.86354287143067
149.8635750336285
149.86373315822075
149.8644958941141
149.86809000026093
149.88453589394743
149.95699126303316
150.26045436781948
151.44474285397243
155.6091942312348
168.05281340172823
197.26696216690686
168.05281357341286
137.9753047142017
125.15036115622722
120.85363506235194
119.63066984863829
119.31708992106286
119.24217979633374
119.22516968310539
119.22145097109208
119.22066156423287
119.22049786939975
119.22046456685636
119.22045789830989
119.22045658102674
119.22045632545206
119.22045628521285
119.22045632545198
119.22045658102664
119.22045789831304
119.22046456687383
119.22049786930317
119.22066156439612
119.2214509729802
119.22516968242196
119.24217983459526
119.31708981927558
119.63067011412649
120.85363346308628
125.15036232455536
137.97532743451248
168.05281471492663
155.60919351144142
125.1503383688187
112.13947353380715
107.77110216512388
106.52530915440882
106.20536994699792
106.12884196704107
106.1114459360667
106.10763944648029
106.10683078721662
106.10666298904638
106.10662883188614
106.10662198869895
106.10662063629871
106.10662037380428
106.10662033246327
106.10662037380425
106.1066206362987
106.10662198870232
106.10662883190396
106.10666298894755
106.10683078738377
106.10763944841344
106.11144593536756
106.1288420061431
106.2053698430974
106.52530942500779
107.77110053786875
112.1394747199978
125.15036139351221
155.60919465803153
151.44474161255445
120.85360885227034
107.77109879489765
103.37136493908085
102.11431005534118
101.79092307397588
101.71345390977238
101.69582082340511
101.69195804721677
101.69113660550441
101.69096600329726
101.69093124780282
101.69092427978268
101.69092290182641
101.69092263421784
101.6909225920533
101.69092263421781
101.69092290182634
101.69092427978605
101.69093124782104
101.69096600319669
101.69113660567432
101.69195804917915
101.6958208226961
101.7134539493727
101.79092296889723
102.11431032855549
103.37136329886371
107.77109998830188
120.85363198713232
151.44474275894302
150.26045313392635
119.63064547531096
106.52530768610082
102.11431198142259
100.85264445920203
100.52766615794427
100.44971921549977
100.4319566335693
100.42806127489868
100.4272320807961
100.42705971163409
100.42702456683561
100.42701751535753
100.42701611991197
100.42701584873276
100.42701580598496
100.42701584873275
100.42701611991185
100.42701751536094
100.42702456685399
100.4270597115325
100.42723208096766
100.42806127687814
100.43195663285475
100.44971925535978
100.52766605229937
100.85264473354025
102.11431033622097
106.52530888190012
119.63066864351148
150.26045427997968
149.95699005791565
119.31706520058023
106.20536813344891
101.79092465404037
100.5276658083686
100.20206442616607
100.12390776035949
100.10608280351667
100.10217054993225
100.10133708946927
100.10116369939321
100.10112832036077
100.10112121691931
100.10111981026095
100.10111953673476
100.10111949359666
100.10111953673467
100.10111981026074
100.10112121692268
100.10112832037927
100.10116369929106
100.10133708964177
100.10217055192092
100.10608280279926
100.12390780033769
100.2020643202873
100.52766608311562
101.79092300720578
106.20536932993573
119.31708837773361
149.9569912038584
149.88453464560075
119.24215516883423
106.12884025059427
101.71345558883583
100.44971896489778
100.12390785976676
100.04567170408575
100.02782042142043
100.02390037119392
100.02306479338498
100.02289086539913
100.02285535666113
100.0228482232143
100.02284680984593
100.02284653487213
100.02284649148814
100.02284653487197
100.02284680984576
100.0228482232177
100.02285535667976
100.02289086529657
100.02306479355804
100.02390037318676
100.02782042070187
100.04567174411059
100.12390775380422
100.44971923977363
101.71345394152975
106.12884144725992
119.24217834820587
149.88453579151516
149.86808875372407
119.22514501797538
106.11144418166339
101.6958224642194
100.43195634430717
100.10608286420376
100.0278203826245
100.00995936424344
100.00603612554421
100.0051996047922
100.00502541963624
100.00498984509406
100.00498269564343
100.00498127854057
100.00498100273153
100.004980959202
100.0049810027314
100.00498127854033
100.0049826956469
100.0049898451126
100.00502541953348
100.00519960496537
100.00603612753889
100.00995936352425
100.02782042266544
100.10608275821477
100.43195661921922
101.6958208167894
106.11144537837221
119.22516819786576
149.8680898996322
149.86449464568312
119.22142630644969
106.1076376926891
101.69195968870007
100.42806098627294
100.10217061127462
100.02390033304614
100.00603612619835
100.00211173081223
100.00127483428476
100.00110053798622
100.00106493297987
100.00105777567468
100.00105635664538
100.001056080387
100.00105603677692
100.00105608038692
100.0010563566452
100.00105777567818
100.00106493299847
100.00110053788333
100.001274834458
100.00211173280763
100.00603612547897
100.02390037309208
100.10217050527798
100.42806126119442
101.69195804123952
106.10763888940797
119.2214494864561
149.86449579158986
149.86373190920156
119.22063689722991
106.10682903103263
101.69113824456937
100.42723178972142
100.10133714835494
100.02306475277284
100.00519960298092
100.00127483181825
100.00043780105878
100.00026346141318
100.00022784357401
100.00022068273293
100.00021926278545
100.00021898630244
100.00021894265062
100.00021898630243
100.00021926278531
100.00022068273643
100.00022784359268
100.00026346131033
100.00043780123205
100.00127483381384
100.00519960226137
100.02306479282008
100.10133704235632
100.4272320646452
101.69113659710182
106.10683022775376
119.22066007726151
149.86373305510807
149.86357378473875
119.22047320226541
106.1066612327329
101.69096764223285
100.4270594204266
100.10116375814616
100.02289082465309
100.00502541769121
100.00110053538592
100.00026346127942
100.00008910634443
100.00005348359072
100.00004632129267
100.00004490094189
100.00004462435473
100.00004458068292
100.00004462435467
100.0000449009418
100.00004632129618
100.00005348360932
100.0000891062416
100.00026346145275
100.00110053738153
100.0050254169717
100.02289086470066
100.10116365214705
100.4270596953509
101.69096599476367
106.10666242945447
119.22049638230236
149.86357493064526
149.86354162251533
119.22043989980835
106.10662707566202
101.69093288682984
100.42702427572
100.1011283792064
100.02285531600792
100.0049898432421
100.00106493047274
100.00022784353348
100.00005348368397
100.0000178592149
100.0000106963676
100.0000092758538
100.000008999222
100.00000895554126
100.00000899922193
100.00000927585373
100.00001069637108
100.00001785923351
100.00005348358107
100.00022784370682
100.00106493246845
100.00498984252269
100.02285535605566
100.10112827320707
100.42702455064446
101.69093123936032
106.10662827238379
119.22046307984631
149.8635427684219
149.86353518350865
119.22043323125143
106.1066202324646
101.69092591879922
100.42701722423125
100.10112127575418
100.02284818255025
100.00498269378076
100.00105777315686
100.00022068268169
100.00004632137518
100.00001069635682
100.00000353331951
100.00000211274522
100.00000183609562
100.00000179241117
100.00000183609562
100.00000211274514
100.00000353332301
100.00001069637553
100.00004632127224
100.00022068285494
100.00105777515247
100.0049826930613
100.02284822259801
100.1011211697549
100.42701749915567
101.69092427132968
106.10662142918629
119.22045641128969
149.86353632941515
149.86353391178187
119.2204319139657
106.10661888006167
101.69092454084034
100.42701582878297
100.10111986909308
100.02284676917911
100.00498127667504
100.00105635412463
100.0002192627313
100.00004490102164
100.00000927584028
100.0000021127424
100.0000006921473
100.00000041549123
100.00000037180537
100.00000041549121
100.00000069214714
100.00000211274585
100.0000092758589
100.00004490091867
100.00021926290458
100.0010563561203
100.00498127595553
100.02284680922686
100.10111976309372
100.4270161037074
101.69092289337071
106.10662007678336
119.22045509400395
149.86353505768835
149.86353366508317
119.22043165839112
106.10661861756742
101.6909242732319
100.42701555760405
100.10111959556716
100.02284649420552
100.0049810008663
100.00105607786656
100.00021898624857
100.0000446244347
100.00000899920872
100.00000183609318
100.0000004154915
100.0000001388333
100.00000009514692
100.0000001388333
100.00000041549137
100.00000183609647
100.00000899922726
100.00004462433174
100.00021898642187
100.00105607986222
100.00498100014686
100.02284653425332
100.10111948956786
100.42701583252848
101.69092262576228
106.10661981428908
119.22045483842939
149.86353481098976
149.86353362624578
119.220431618152
106.10661857622638
101.69092423106744
100.42701551485624
100.10111955242914
100.02284645082162
100.00498095733687
100.00105603425658
100.00021894259687
100.00004458076295
100.00000895552805
100.0000017924088
100.00000037180573
100.00000009514704
100.00000005146055
100.00000009514702
100.0000003718055
100.00000179241206
100.00000895554656
100.00004458066
100.00021894277019
100.00105603625224
100.00498095661739
100.02284649086943
100.10111944642985
100.4270157897807
101.6909225835978
106.10661977294811
119.22045479819032
149.86353477215235
149.86353366508322
119.22043165839118
106.10661861756742
101.69092427323196
100.42701555760398
100.10111959556718
100.02284649420555
100.00498100086635
100.00105607786662
100.00021898624857
100.00004462443476
100.00000899920877
100.00000183609316
100.00000041549157
100.0000001388334
100.00000009514706
100.00000013883331
100.00000041549144
100.00000183609653
100.00000899922729
100.0000446243318
100.00021898642184
100.00105607986227
100.00498100014684
100.02284653425338
100.10111948956788
100.42701583252848
101.69092262576233
106.10661981428912
119.22045483842959
149.8635348109898
149.8635339117821
119.22043191396601
106.10661888006192
101.69092454084056
100.42701582878321
100.10111986909332
100.02284676917934
100.00498127667525
100.00105635412487
100.00021926273156
100.00004490102182
100.00000927584053
100.00000211274262
100.00000069214755
100.00000041549153
100.0000003718056
100.00000041549146
100.00000069214735
100.00000211274607
100.00000927585918
100.00004490091892
100.00021926290479
100.0010563561205
100.00498127595574
100.02284680922705
100.101119763094
100.42701610370767
101.69092289337095
106.1066200767836
119.22045509400428
149.8635350576886
149.86353518350964
119.2204332312525
106.10662023246573
101.69092591880036
100.42701722423234
100.10112127575523
100.02284818255133
100.00498269378186
100.00105777315794
100.0002206826828
100.00004632137626
100.00001069635798
100.00000353332064
100.0000021127463
100.0000018360967
100.00000179241223
100.00000183609667
100.00000211274616
100.00000353332413
100.0000106963766
100.00004632127339
100.00022068285605
100.00105777515353
100.00498269306237
100.02284822259912
100.10112116975601
100.42701749915682
101.69092427133072
106.1066214291873
119.22045641129073
149.86353632941618
149.86354162252073
119.22043989981387
106.10662707566777
101.6909328868357
100.4270242757259
100.10112837921227
100.02285531601387
100.0049898432481
100.00106493047875
100.00022784353943
100.00005348368994
100.00001785922095
100.00001069637362
100.0000092758598
100.00000899922792
100.0000089555472
100.0000089992279
100.00000927585974
100.000010696377
100.0000178592395
100.00005348358698
100.00022784371272
100.00106493247438
100.00498984252857
100.02285535606164
100.10112827321302
100.4270245506503
101.69093123936608
106.10662827238941
119.2204630798519
149.86354276842724
149.86357378481003
119.22047320233916
106.10666123280855
101.69096764230977
100.42705942050428
100.10116375822429
100.02289082473143
100.00502541776986
100.00110053546453
100.00026346135812
100.00008910642312
100.0000534836694
100.00004632137139
100.00004490102057
100.00004462443337
100.00004458076153
100.00004462443333
100.00004490102039
100.00004632137484
100.00005348368798
100.00008910632023
100.00026346153135
100.00110053746015
100.00502541705033
100.02289086477913
100.10116365222518
100.42705969542854
101.6909659948405
106.10666242953006
119.22049638237597
149.86357493071654
149.86373190912087
119.22063689714635
106.10682903094703
101.6911382444823
100.42723178963355
100.10133714826658
100.02306475268414
100.00519960289225
100.00127483172956
100.00043780097006
100.00026346132452
100.0002278434853
100.00022068264423
100.00021926269663
100.0002189862137
100.00021894256187
100.00021898621358
100.00021926269653
100.00022068264767
100.00022784350395
100.00026346122158
100.00043780114336
100.00127483372519
100.0051996021728
100.02306479273152
100.10133704226794
100.42723206455733
101.69113659701472
106.10683022766808
119.22066007717794
149.86373305502738
149.86449464723535
119.2214263080559
106.10763769433376
101.69195969036959
100.42806098795705
100.10217061296645
100.02390033474168
100.00603612789536
100.00211173251
100.00127483598263
100.00110053968412
100.00106493467779
100.00105777737264
100.00105635834319
100.00105608208487
100.00105603847481
100.00105608208487
100.00105635834306
100.00105777737606
100.00106493469644
100.00110053958132
100.00127483615583
100.00211173450529
100.00603612717602
100.0239003747876
100.1021705069699
100.42806126287854
101.69195804290906
106.10763889105257
119.22144948806236
149.86449579314217
149.86808875193614
119.22514501612596
106.1114441797713
101.69582246230087
100.43195634237378
100.10608286226294
100.02782038068034
100.00995936229806
100.00603612359846
100.00519960284629
100.0050254176902
100.00498984314798
100.00498269369731
100.00498127659444
100.00498100078543
100.00498095725594
100.00498100078542
100.00498127659438
100.00498269370084
100.00498984316661
100.0050254175875
100.00519960301946
100.00603612559311
100.00995936157886
100.02782042072133
100.10608275627395
100.4319566172858
101.69582081487084
106.11144537648025
119.2251681960163
149.86808989784424
149.88453468877674
119.24215521347917
106.12884029621985
101.71345563504288
100.44971901140809
100.12390790641486
100.04567175078846
100.02782046814205
100.0239004179214
100.02306484011406
100.0228909121286
100.02285540339072
100.0228482699438
100.02284685657546
100.02284658160161
100.02284653821765
100.0228465816016
100.02284685657534
100.0228482699473
100.0228554034094
100.02289091202609
100.02306484028706
100.02390041991427
100.02782046742341
100.04567179081324
100.12390780045237
100.44971928628391
101.71345398773686
106.12884149288543
119.24217839285082
149.88453583469112
149.95699011125657
119.3170652557087
106.2053681897181
101.79092471094197
100.52766586557095
100.20206448349015
100.12390781772578
100.1060828608958
100.10217060731487
100.10133714685267
100.10116375677688
100.10112837774447
100.1011212743029
100.10111986764458
100.10111959411837
100.10111955098029
100.10111959411836
100.10111986764447
100.10112127430635
100.10112837776293
100.10116375667468
100.10133714702528
100.10217060930346
100.10608286017832
100.12390785770387
100.20206437761139
100.527666140318
101.7909230641074
106.20536938620496
119.31708843286201
149.95699125719935
150.2604528091608
119.63064513985653
106.5253073441811
102.1143116361867
100.85264411253306
100.5276658107489
100.44971886813633
100.43195628615794
100.42806092747465
100.42723173336894
100.42705936420623
100.42702421940753
100.42701716792932
100.42701577248377
100.42701550130464
100.42701545855681
100.42701550130462
100.42701577248377
100.4270171679328
100.42702421942593
100.42705936410461
100.42723173354048
100.42806092945412
100.43195628544325
100.44971890799631
100.52766570510394
100.85264438687125
102.1143099909851
106.52530853998034
119.63066830805708
150.2604539552142
151.44474294866478
120.85361023127248
107.77110019793012
103.37136635315879
102.11431147361223
101.7909244935988
101.71345532978016
101.6958222435131
101.69195946734915
101.69113802564239
101.69096742343656
101.69093266794235
101.69092569992219
101.69092432196602
101.6909240543574
101.69092401219287
101.69092405435738
101.69092432196592
101.69092569992557
101.6909326679605
101.69096742333592
101.69113802581225
101.69195946931134
101.69582224280384
101.71345536938028
101.7909243885199
102.11431174682643
103.3713647129416
107.7711013913342
120.85363336613436
151.44474409505335
155.60919116590134
125.15033595002694
112.13947107709146
107.77109969253307
106.52530667630275
106.20536746724328
106.12883948684593
106.11144345576278
106.10763696615105
106.10682830688162
106.1066605087102
106.10662635154964
106.10661950836237
106.10661815596211
106.10661789346766
106.10661785212658
106.10661789346764
106.10661815596201
106.10661950836574
106.1066263515674
106.10666050861121
106.10682830704876
106.10763696808405
106.11144345506348
106.12883952594774
106.20536736334256
106.52530694690157
107.77109806527784
112.13947226328196
125.15035897472039
155.60919231249144
168.05283178821668
137.97532347598624
125.15038017044327
120.85365416832869
119.630688982484
119.31710906240579
119.24219893953513
119.22518882674122
119.22147011482517
119.22068070798703
119.22051701315826
119.22048371061584
119.22047704206942
119.22047572478645
119.22047546921155
119.22047542897243
119.2204754692116
119.22047572478634
119.22047704207277
119.22048371063323
119.22051701306174
119.22068070815007
119.2214701167132
119.2251888260577
119.24219897779646
119.31710896061831
119.63068924797206
120.8536525690628
125.15038133877103
137.97534619629644
168.0528329297304
197.26696180698664
168.052792115082
155.60919387203728
151.44474517660097
150.26045488357977
149.95699213422253
149.88453662963116
149.86809077360408
149.86449666497117
149.8637339307446
149.86357580640316
149.86354364409542
149.86353720509834
149.86353593337404
149.8635356866751
149.86353564783772
149.86353568667522
149.86353593337398
149.8635372051015
149.86354364411213
149.86357580630988
149.86373393090224
149.86449666679576
149.8680907729433
149.88453666663355
149.95699203573778
150.26045514061042
151.44474362712276
155.60919500516172
168.05281417365583
197.26696292170004

