# vtk DataFile Version 2.0
Unstructured Grid Example
ASCII
DATASET UNSTRUCTURED_GRID

POINTS 961 float
0.100000001 0.00499999989 0
0.0966666639 0.00499999989 0
0.0933333337 0.00499999989 0
0.0900000036 0.00499999989 0
0.086666666 0.00499999989 0
0.0833333358 0.00499999989 0
0.0799999982 0.00499999989 0
0.0766666681 0.00499999989 0
0.0733333305 0.00499999989 0
0.0700000003 0.00499999989 0
0.0666666701 0.00499999989 0
0.0633333325 0.00499999989 0
0.0599999987 0.00499999989 0
0.0566666685 0.00499999989 0
0.0533333346 0.00499999989 0
0.0500000007 0.00499999989 0
0.0466666669 0.00499999989 0
0.043333333 0.00499999989 0
0.0399999991 0.00499999989 0
0.0366666652 0.00499999989 0
0.0333333351 0.00499999989 0
0.0299999993 0.00499999989 0
0.0266666673 0.00499999989 0
0.0233333334 0.00499999989 0
0.0199999996 0.00499999989 0
0.0166666675 0.00499999989 0
0.0133333337 0.00499999989 0
0.00999999978 0.00499999989 0
0.00666666683 0.00499999989 0
0.00333333341 0.00499999989 0
0 0.00499999989 0
0.100000001 0.00166666671 0
0.0966666639 0.00166666671 0
0.0933333337 0.00166666671 0
0.0900000036 0.00166666671 0
0.086666666 0.00166666671 0
0.0833333358 0.00166666671 0
0.0799999982 0.00166666671 0
0.0766666681 0.00166666671 0
0.0733333305 0.00166666671 0
0.0700000003 0.00166666671 0
0.0666666701 0.00166666671 0
0.0633333325 0.00166666671 0
0.0599999987 0.00166666671 0
0.0566666685 0.00166666671 0
0.0533333346 0.00166666671 0
0.0500000007 0.00166666671 0
0.0466666669 0.00166666671 0
0.043333333 0.00166666671 0
0.0399999991 0.00166666671 0
0.0366666652 0.00166666671 0
0.0333333351 0.00166666671 0
0.0299999993 0.00166666671 0
0.0266666673 0.00166666671 0
0.0233333334 0.00166666671 0
0.0199999996 0.00166666671 0
0.0166666675 0.00166666671 0
0.0133333337 0.00166666671 0
0.00999999978 0.00166666671 0
0.00666666683 0.00166666671 0
0.00333333341 0.00166666671 0
0 0.00166666671 0
0.100000001 -0.00166666671 0
0.0966666639 -0.00166666671 0
0.0933333337 -0.00166666671 0
0.0900000036 -0.00166666671 0
0.086666666 -0.00166666671 0
0.0833333358 -0.00166666671 0
0.0799999982 -0.00166666671 0
0.0766666681 -0.00166666671 0
0.0733333305 -0.00166666671 0
0.0700000003 -0.00166666671 0
0.0666666701 -0.00166666671 0
0.0633333325 -0.00166666671 0
0.0599999987 -0.00166666671 0
0.0566666685 -0.00166666671 0
0.0533333346 -0.00166666671 0
0.0500000007 -0.00166666671 0
0.0466666669 -0.00166666671 0
0.043333333 -0.00166666671 0
0.0399999991 -0.00166666671 0
0.0366666652 -0.00166666671 0
0.0333333351 -0.00166666671 0
0.0299999993 -0.00166666671 0
0.0266666673 -0.00166666671 0
0.0233333334 -0.00166666671 0
0.0199999996 -0.00166666671 0
0.0166666675 -0.00166666671 0
0.0133333337 -0.00166666671 0
0.00999999978 -0.00166666671 0
0.00666666683 -0.00166666671 0
0.00333333341 -0.00166666671 0
0 -0.00166666671 0
0.100000001 -0.00499999989 0
0.0966666639 -0.00499999989 0
0.0933333337 -0.00499999989 0
0.0900000036 -0.00499999989 0
0.086666666 -0.00499999989 0
0.0833333358 -0.00499999989 0
0.0799999982 -0.00499999989 0
0.0766666681 -0.00499999989 0
0.0733333305 -0.00499999989 0
0.0700000003 -0.00499999989 0
0.0666666701 -0.00499999989 0
0.0633333325 -0.00499999989 0
0.0599999987 -0.00499999989 0
0.0566666685 -0.00499999989 0
0.0533333346 -0.00499999989 0
0.0500000007 -0.00499999989 0
0.0466666669 -0.00499999989 0
0.043333333 -0.00499999989 0
0.0399999991 -0.00499999989 0
0.0366666652 -0.00499999989 0
0.0333333351 -0.00499999989 0
0.0299999993 -0.00499999989 0
0.0266666673 -0.00499999989 0
0.0233333334 -0.00499999989 0
0.0199999996 -0.00499999989 0
0.0166666675 -0.00499999989 0
0.0133333337 -0.00499999989 0
0.00999999978 -0.00499999989 0
0.00666666683 -0.00499999989 0
0.00333333341 -0.00499999989 0
0 -0.00499999989 0
0.100000001 -0.00833333377 0
0.0966666639 -0.00833333377 0
0.0933333337 -0.00833333377 0
0.0900000036 -0.00833333377 0
0.086666666 -0.00833333377 0
0.0833333358 -0.00833333377 0
0.0799999982 -0.00833333377 0
0.0766666681 -0.00833333377 0
0.0733333305 -0.00833333377 0
0.0700000003 -0.00833333377 0
0.0666666701 -0.00833333377 0
0.0633333325 -0.00833333377 0
0.0599999987 -0.00833333377 0
0.0566666685 -0.00833333377 0
0.0533333346 -0.00833333377 0
0.0500000007 -0.00833333377 0
0.0466666669 -0.00833333377 0
0.043333333 -0.00833333377 0
0.0399999991 -0.00833333377 0
0.0366666652 -0.00833333377 0
0.0333333351 -0.00833333377 0
0.0299999993 -0.00833333377 0
0.0266666673 -0.00833333377 0
0.0233333334 -0.00833333377 0
0.0199999996 -0.00833333377 0
0.0166666675 -0.00833333377 0
0.0133333337 -0.00833333377 0
0.00999999978 -0.00833333377 0
0.00666666683 -0.00833333377 0
0.00333333341 -0.00833333377 0
0 -0.00833333377 0
0.100000001 -0.0116666667 0
0.0966666639 -0.0116666667 0
0.0933333337 -0.0116666667 0
0.0900000036 -0.0116666667 0
0.086666666 -0.0116666667 0
0.0833333358 -0.0116666667 0
0.0799999982 -0.0116666667 0
0.0766666681 -0.0116666667 0
0.0733333305 -0.0116666667 0
0.0700000003 -0.0116666667 0
0.0666666701 -0.0116666667 0
0.0633333325 -0.0116666667 0
0.0599999987 -0.0116666667 0
0.0566666685 -0.0116666667 0
0.0533333346 -0.0116666667 0
0.0500000007 -0.0116666667 0
0.0466666669 -0.0116666667 0
0.043333333 -0.0116666667 0
0.0399999991 -0.0116666667 0
0.0366666652 -0.0116666667 0
0.0333333351 -0.0116666667 0
0.0299999993 -0.0116666667 0
0.0266666673 -0.0116666667 0
0.0233333334 -0.0116666667 0
0.0199999996 -0.0116666667 0
0.0166666675 -0.0116666667 0
0.0133333337 -0.0116666667 0
0.00999999978 -0.0116666667 0
0.00666666683 -0.0116666667 0
0.00333333341 -0.0116666667 0
0 -0.0116666667 0
0.100000001 -0.0149999997 0
0.0966666639 -0.0149999997 0
0.0933333337 -0.0149999997 0
0.0900000036 -0.0149999997 0
0.086666666 -0.0149999997 0
0.0833333358 -0.0149999997 0
0.0799999982 -0.0149999997 0
0.0766666681 -0.0149999997 0
0.0733333305 -0.0149999997 0
0.0700000003 -0.0149999997 0
0.0666666701 -0.0149999997 0
0.0633333325 -0.0149999997 0
0.0599999987 -0.0149999997 0
0.0566666685 -0.0149999997 0
0.0533333346 -0.0149999997 0
0.0500000007 -0.0149999997 0
0.0466666669 -0.0149999997 0
0.043333333 -0.0149999997 0
0.0399999991 -0.0149999997 0
0.0366666652 -0.0149999997 0
0.0333333351 -0.0149999997 0
0.0299999993 -0.0149999997 0
0.0266666673 -0.0149999997 0
0.0233333334 -0.0149999997 0
0.0199999996 -0.0149999997 0
0.0166666675 -0.0149999997 0
0.0133333337 -0.0149999997 0
0.00999999978 -0.0149999997 0
0.00666666683 -0.0149999997 0
0.00333333341 -0.0149999997 0
0 -0.0149999997 0
0.100000001 -0.0183333326 0
0.0966666639 -0.0183333326 0
0.0933333337 -0.0183333326 0
0.0900000036 -0.0183333326 0
0.086666666 -0.0183333326 0
0.0833333358 -0.0183333326 0
0.0799999982 -0.0183333326 0
0.0766666681 -0.0183333326 0
0.0733333305 -0.0183333326 0
0.0700000003 -0.0183333326 0
0.0666666701 -0.0183333326 0
0.0633333325 -0.0183333326 0
0.0599999987 -0.0183333326 0
0.0566666685 -0.0183333326 0
0.0533333346 -0.0183333326 0
0.0500000007 -0.0183333326 0
0.0466666669 -0.0183333326 0
0.043333333 -0.0183333326 0
0.0399999991 -0.0183333326 0
0.0366666652 -0.0183333326 0
0.0333333351 -0.0183333326 0
0.0299999993 -0.0183333326 0
0.0266666673 -0.0183333326 0
0.0233333334 -0.0183333326 0
0.0199999996 -0.0183333326 0
0.0166666675 -0.0183333326 0
0.0133333337 -0.0183333326 0
0.00999999978 -0.0183333326 0
0.00666666683 -0.0183333326 0
0.00333333341 -0.0183333326 0
0 -0.0183333326 0
0.100000001 -0.0216666665 0
0.0966666639 -0.0216666665 0
0.0933333337 -0.0216666665 0
0.0900000036 -0.0216666665 0
0.086666666 -0.0216666665 0
0.0833333358 -0.0216666665 0
0.0799999982 -0.0216666665 0
0.0766666681 -0.0216666665 0
0.0733333305 -0.0216666665 0
0.0700000003 -0.0216666665 0
0.0666666701 -0.0216666665 0
0.0633333325 -0.0216666665 0
0.0599999987 -0.0216666665 0
0.0566666685 -0.0216666665 0
0.0533333346 -0.0216666665 0
0.0500000007 -0.0216666665 0
0.0466666669 -0.0216666665 0
0.043333333 -0.0216666665 0
0.0399999991 -0.0216666665 0
0.0366666652 -0.0216666665 0
0.0333333351 -0.0216666665 0
0.0299999993 -0.0216666665 0
0.0266666673 -0.0216666665 0
0.0233333334 -0.0216666665 0
0.0199999996 -0.0216666665 0
0.0166666675 -0.0216666665 0
0.0133333337 -0.0216666665 0
0.00999999978 -0.0216666665 0
0.00666666683 -0.0216666665 0
0.00333333341 -0.0216666665 0
0 -0.0216666665 0
0.100000001 -0.0250000004 0
0.0966666639 -0.0250000004 0
0.0933333337 -0.0250000004 0
0.0900000036 -0.0250000004 0
0.086666666 -0.0250000004 0
0.0833333358 -0.0250000004 0
0.0799999982 -0.0250000004 0
0.0766666681 -0.0250000004 0
0.0733333305 -0.0250000004 0
0.0700000003 -0.0250000004 0
0.0666666701 -0.0250000004 0
0.0633333325 -0.0250000004 0
0.0599999987 -0.0250000004 0
0.0566666685 -0.0250000004 0
0.0533333346 -0.0250000004 0
0.0500000007 -0.0250000004 0
0.0466666669 -0.0250000004 0
0.043333333 -0.0250000004 0
0.0399999991 -0.0250000004 0
0.0366666652 -0.0250000004 0
0.0333333351 -0.0250000004 0
0.0299999993 -0.0250000004 0
0.0266666673 -0.0250000004 0
0.0233333334 -0.0250000004 0
0.0199999996 -0.0250000004 0
0.0166666675 -0.0250000004 0
0.0133333337 -0.0250000004 0
0.00999999978 -0.0250000004 0
0.00666666683 -0.0250000004 0
0.00333333341 -0.0250000004 0
0 -0.0250000004 0
0.100000001 -0.0283333343 0
0.0966666639 -0.0283333343 0
0.0933333337 -0.0283333343 0
0.0900000036 -0.0283333343 0
0.086666666 -0.0283333343 0
0.0833333358 -0.0283333343 0
0.0799999982 -0.0283333343 0
0.0766666681 -0.0283333343 0
0.0733333305 -0.0283333343 0
0.0700000003 -0.0283333343 0
0.0666666701 -0.0283333343 0
0.0633333325 -0.0283333343 0
0.0599999987 -0.0283333343 0
0.0566666685 -0.0283333343 0
0.0533333346 -0.0283333343 0
0.0500000007 -0.0283333343 0
0.0466666669 -0.0283333343 0
0.043333333 -0.0283333343 0
0.0399999991 -0.0283333343 0
0.0366666652 -0.0283333343 0
0.0333333351 -0.0283333343 0
0.0299999993 -0.0283333343 0
0.0266666673 -0.0283333343 0
0.0233333334 -0.0283333343 0
0.0199999996 -0.0283333343 0
0.0166666675 -0.0283333343 0
0.0133333337 -0.0283333343 0
0.00999999978 -0.0283333343 0
0.00666666683 -0.0283333343 0
0.00333333341 -0.0283333343 0
0 -0.0283333343 0
0.100000001 -0.0316666663 0
[...]
POINT_DATA 961
SCALARS Temp float 1
LOOKUP_TABLE default
213.15278675971007
182.73181848074117
167.48503831939198
161.2674944028455
159.11741928496
158.46023408980577
158.27685815806743
158.2290805281661
158.2172732307588
158.21447468182635
158.2138333671983
158.2136904244162
158.21365929470824
158.21365264945047
158.213651265533
158.2136510357037
158.21365126553295
158.21365264945
158.21365929472373
158.213690424493
158.21383336680907
158.2144746824248
158.21727323697178
158.2290805261295
158.27685825630255
158.46023386293217
159.11741978338753
161.26749187643358
167.48503981015293
182.7318429982852
213.15278713314527
182.73184412183764
151.36684070657049
135.63805301729806
129.21970486065229
126.99878724285833
126.3195780361561
126.12997003220156
126.08054973976915
126.06833253162961
126.06543602270587
126.06477210011239
126.06462408711144
126.06459184723454
126.06458496385046
126.06458353013277
126.0645832920077
126.06458353013264
126.06458496385005
126.0645918472506
126.06462408719099
126.06477209970942
126.06543602332532
126.06833253805885
126.08054973766221
126.12997013378919
126.31957780163428
126.9987877578181
129.21970225185447
135.63805455555925
151.366865990779
182.73184450421698
167.48504007166764
135.6380279591103
119.64983911967074
113.11649192228421
110.85252595583823
110.15924407560831
109.96548772988174
109.91493694393117
109.90242977273093
109.89946235752245
109.89878174836278
109.89862992986592
109.8985968445101
109.89858977744127
109.89858830487921
109.89858806023146
109.89858830487911
109.89858977744086
109.8985968445267
109.89862992994745
109.89878174794963
109.89946235815721
109.90242977931435
109.91493694177507
109.96548783372845
110.1592438361126
110.85252648104682
113.11648926489632
119.64984068408206
135.63805364331841
167.48504045511774
161.26749144765557
129.21967476050983
113.11648695759656
106.52801131739929
104.24169203612887
103.54056321880867
103.34435307638378
103.29310067744784
103.28040632435241
103.27739161895319
103.27669957156701
103.27654508288911
103.27651139223637
103.27650419134129
103.27650269004799
103.2765024405233
103.2765026900479
103.27650419134089
103.2765113922532
103.27654508297216
103.27669957114675
103.27739161959825
103.28040633103652
103.29310067526046
103.34435318159073
103.54056297646478
104.24169256681571
106.52800863572723
113.11648853392724
129.21970061566782
161.26749183018472
159.11741937098512
126.99876021705349
110.85252418359167
104.24169527560436
101.9454659622352
101.24054407130492
101.04305442026927
100.99141234781476
100.9786084895329
100.97556490093528
100.97486561096983
100.97470937908679
100.97467528278048
100.97466799014174
100.97466646876494
100.97466621578371
100.97466646876484
100.97466799014134
100.97467528279745
100.97470937917076
100.97486561054507
100.97556490158675
100.97860849627669
100.99141234560946
101.04305452620261
101.2405438275337
101.9454664954395
104.2416925835893
110.8525257645068
126.9987861340233
159.11741975288462
158.46023352272192
126.31955031439843
110.15924161240042
103.54056576602734
101.24054337074264
100.53402998991488
100.33595454072821
100.28411988155045
100.27125829992309
100.26819864348911
100.26749513804188
100.2673378519351
100.26730350213683
100.2672961505248
100.26729461592267
100.26729436062627
100.26729461592251
100.2672961505243
100.26730350215392
100.2673378520197
100.2674951376146
100.2681986441442
100.27125830669904
100.28411987933579
100.33595464700437
100.53402974551742
101.24054390494867
103.540563070196
110.1592431948491
126.31957625100183
158.46023390438455
158.27685781718532
126.1299425382284
109.9654855048558
103.34435586668742
101.04305396272042
100.33595478494851
100.13764332257395
100.08572416590842
100.07283527852599
100.0697675165326
100.06906176540635
100.06890389105092
100.06886939408321
100.0688620070425
100.06886046426042
100.06886020750257
100.06886046426024
100.06886200704196
100.06886939410037
100.06890389113582
100.06906176497752
100.06976751718956
100.0728352853174
100.08572416368942
100.13764342899287
100.33595454030888
101.04305449727718
103.34435316960825
109.96548708776503
126.12996848048965
158.27685819877834
158.2290800927205
126.0805221463788
109.9149346187374
103.29310336683899
100.99141178817557
100.28412002351767
100.08572406341852
100.03377190393243
100.02087143963418
100.01779998059403
100.01709313828816
100.01693496213416
100.01690038604781
100.01689297917639
100.01689143165588
100.01689117403086
100.01689143165567
100.0168929791758
100.01690038606506
100.0169349622192
100.01709313785852
100.01779998125184
100.02087144643242
100.03377190171153
100.08572416989044
100.28411977879433
100.99141232284263
103.29310066938966
109.91493620177384
126.08054809015442
158.22908047429559
158.21727279801513
126.06830494062586
109.90242745035272
103.28040901676012
100.97860793280768
100.2712584448717
100.0728351789943
100.02087144261381
100.00796656593275
100.0048935829667
100.00418625805365
100.00402793991813
100.00399332455741
100.00398590737261
100.003984357288
100.00398409918078
100.00398435728786
100.00398590737205
100.00399332457467
100.00402794000333
100.00418625762373
100.0048935836248
100.00796657273361
100.02087144039211
100.07283528548386
100.27125820012203
100.97860846750663
103.28040631920898
109.90242903342227
126.06833088478419
158.21727317958602
158.2144742414202
126.06540842367349
109.89946002701171
103.277394303143
100.97556433588346
100.26819878008489
100.06976740861917
100.0177999751886
100.00489357457755
100.00182002215496
100.00111250294066
100.00095412364267
100.000919490318
100.00091206816124
100.00091051678383
100.00091025842578
100.00091051678372
100.00091206816073
100.00091949033529
100.00095412372785
100.00111250251061
100.00182002281323
100.00489358137935
100.0177999729666
100.06976751511408
100.26819853532766
100.97556487059097
103.27739160556555
109.8994616100895
126.06543436792437
158.21447462299005
158.21383292630364
126.06474450055143
109.89877941733069
103.27670225523619
100.97486504538308
100.26749527410311
100.06906165695383
100.01709313234417
100.00418624912548
100.00111250240177
100.00040491175429
100.0002465083189
100.00021186743021
100.00020444305511
100.00020289107145
100.00020263259184
100.00020289107137
100.00020444305463
100.00021186744752
100.00024650840408
100.00040491132424
100.00111250306016
100.00418625592754
100.01709313012213
100.06906176345024
100.26749502934378
100.97486558009282
103.27669955765221
109.89878100041044
126.06477044482386
158.21383330787353
158.21368998387885
126.06459648791518
109.89862759921238
103.27654776694558
100.97470881388942
100.26733798838903
100.06890378299175
100.0169349565846
100.00402793138467
100.00095412349873
100.0002465087139
100.0000880965248
100.00005345270192
100.00004602741143
100.00004447516375
100.0000442166291
100.00004447516369
100.00004602741097
100.00005345271926
100.00008809660997
100.0002465082838
100.00095412415716
100.00402793818687
100.01693495436263
100.06890388948864
100.26733774362914
100.97470934859969
103.2765450693601
109.8986291822926
126.06462243219245
158.21369036544874
158.21365885412743
126.06456424799207
109.89859451381035
103.27651407624619
100.97467471753534
100.26730363854291
100.06886928597581
100.01690038045014
100.00399331597573
100.00091949012595
100.00021186777704
100.00005345265369
100.00001880777914
100.00001138213904
100.00000982978456
100.0000095712268
100.0000098297845
100.00001138213857
100.00001880779645
100.00005345273898
100.00021186734688
100.00091949078424
100.00399332277794
100.01690037822814
100.06886939247278
100.26730339378291
100.97467525224572
103.27651137866036
109.8985960968906
126.06459019227043
158.21365923569712
158.2136522088571
126.06455736459475
109.89858744672807
103.27650687533766
100.97466742488297
100.267296286917
100.06886189892114
100.01689297356471
100.00398589877689
100.00091206795508
100.000204443388
100.00004602734928
100.00001138212502
100.00000395636113
100.00000240396663
100.00000214539983
100.00000240396656
100.00000395636059
100.00001138214229
100.0000460274344
100.0002044429578
100.0009120686134
100.00398590557909
100.0168929713427
100.06886200541821
100.26729604215693
100.97466795959339
103.27650417775169
109.89858902980835
126.06458330887328
158.21365259042682
158.2136508249407
126.06455593087803
109.89858597416712
103.27650537404543
100.97466590350732
100.26729475231615
100.06886035614032
100.01689142604543
100.00398434869355
100.00091051657893
100.00020289140558
100.00004447510287
100.00000982977193
100.0000024039679
100.00000085155976
100.00000059298976
100.00000085155968
100.00000240396737
100.00000982978902
100.00004447518798
100.00020289097534
100.00091051723729
100.00398435549577
100.01689142382344
100.06886046263735
100.26729450755612
100.9746664382177
103.27650267645947
109.89858755724734
126.06458187515662
158.21365120651052
158.21365059511174
126.06455569275336
109.89858572951961
103.27650512452108
100.9746656505265
100.26729449702013
100.06886009938286
100.01689116842086
100.00398409058681
100.00091025822134
100.0002026329263
100.0000442165686
100.00000957121456
100.00000214540151
100.0000005929902
100.00000033441945
100.00000059299015
100.0000021454009
100.00000957123167
100.00004421665366
100.0002026324961
100.0009102588797
100.00398409738897
100.01689116619882
100.06886020587993
100.2672942522601
100.97466618523691
103.27650242693512
109.89858731259996
126.064581637032
158.21365097668155
158.21365082494094
126.06455593087827
109.89858597416733
103.27650537404566
100.97466590350749
100.26729475231636
100.06886035614055
100.0168914260457
100.00398434869385
100.00091051657918
100.00020289140585
100.00004447510315
100.00000982977213
100.00000240396815
100.00000085156006
100.00000059299012
100.00000085155993
100.00000240396763
100.0000098297893
100.0000444751882
100.00020289097566
100.00091051723747
100.003984355496
100.01689142382367
100.06886046263763
100.26729450755636
100.97466643821795
103.27650267645974
109.89858755724764
126.06458187515702
158.21365120651083
158.21365220885818
126.0645573645959
109.89858744672921
103.27650687533878
100.9746674248841
100.26729628691821
100.06886189892232
100.01689297356587
100.00398589877805
100.00091206795628
100.00020444338914
100.00004602735041
100.00001138212623
100.00000395636228
100.00000240396784
100.00000214540101
100.00000240396771
100.00000395636171
100.00001138214344
100.0000460274356
100.00020444295893
100.00091206861451
100.00398590558022
100.01689297134382
100.06886200541933
100.26729604215815
100.9746679595945
103.27650417775284
109.8985890298095
126.06458330887448
158.21365259042798
158.2136588541322
126.06456424799715
109.89859451381557
103.27651407625144
100.97467471754068
100.26730363854824
100.06886928598114
100.0169003804555
100.00399331598116
100.00091949013134
100.00021186778243
100.00005345265917
100.00001880778456
100.00001138214445
100.00000982978997
100.00000957123214
100.00000982978985
100.00001138214391
100.00001880780187
100.00005345274435
100.00021186735226
100.0009194907896
100.00399332278323
100.01690037823347
100.06886939247815
100.26730339378825
100.97467525225109
103.27651137866557
109.89859609689572
126.06459019227545
158.21365923570207
158.21368998390338
126.06459648794049
109.89862759923834
103.27654776697203
100.97470881391614
100.26733798841593
100.06890378301875
100.01693495661172
100.00402793141183
100.00095412352587
100.00024650874103
100.00008809655199
100.0000534527291
100.00004602743854
100.00004447519086
100.00004421665619
100.00004447519075
100.00004602743812
100.00005345274629
100.0000880966371
100.00024650831081
100.00095412418419
100.00402793821397
100.0169349543896
100.06890388951562
100.26733774365606
100.97470934862636
103.27654506938644
109.89862918231849
126.06462243221776
158.21369036547316
158.21383292660119
126.06474450085945
109.89877941764645
103.27670225555732
100.97486504570766
100.26749527442963
100.06906165728145
100.01709313267253
100.00418624945404
100.00111250273044
100.00040491208298
100.00024650864758
100.00021186775889
100.00020444338375
100.00020289140008
100.00020263292039
100.00020289140001
100.00020444338324
100.00021186777614
100.00024650873269
100.00040491165285
100.0011125033887
100.004186256256
100.01709313045046
100.06906176377797
100.26749502967031
100.97486558041732
103.27669955797327
109.89878100072613
126.06477044513173
158.213833308171
158.21447424111295
126.06540842335556
109.89946002668587
103.2773943028118
100.975564335549
100.26819877974854
100.06976740828179
100.01779997485087
100.00489357423969
100.00182002181705
100.00111250260272
100.00095412330472
100.00091948998
100.00091206782311
100.00091051644581
100.00091025808773
100.00091051644564
100.00091206782264
100.00091948999722
100.0009541233898
100.00111250217259
100.00182002247529
100.00489358104151
100.01779997262894
100.06976751477681
100.26819853499131
100.9755648702565
103.27739160523431
109.89946160976362
126.06543436760636
158.21447462268293
158.21727280330558
126.06830494610053
109.9024274559588
103.28040902245199
100.97860793855051
100.27125845064188
100.07283518477773
100.02087144840301
100.00796657172435
100.00489358875906
100.0041862638463
100.00402794571085
100.00399333035013
100.0039859131652
100.00398436308066
100.00398410497351
100.00398436308059
100.00398591316474
100.0039933303674
100.00402794579598
100.00418626341639
100.00489358941716
100.00796657852517
100.02087144618139
100.07283529126732
100.27125820589228
100.97860847324945
103.2804063249009
109.90242903902835
126.06833089025885
158.21727318487655
158.22908008726594
126.08052214073608
109.91493461296342
103.29310336098229
100.9914117822717
100.2841200175897
100.08572405747951
100.03377189798887
100.02087143368904
100.01779997464831
100.01709313234213
100.01693495618811
100.01690038010163
100.01689297323023
100.01689142570973
100.01689116808477
100.01689142570966
100.01689297322984
100.01690038011895
100.01693495627319
100.01709313191267
100.01779997530612
100.02087144048723
100.03377189576801
100.08572416395141
100.28411977286636
100.99141231693876
103.29310066353297
109.91493619600001
126.0805480845116
158.22908046884106
158.2768579318283
126.1299426567838
109.96548562604768
103.34435598946702
101.04305408634833
100.33595490897672
100.13764344676919
100.08572429016564
100.072835402804
100.06976764081695
100.06906188969245
100.06890401533754
100.06886951836985
100.0688621313292
100.06886058854712
100.06886033178924
100.06886058854701
100.06886213132873
100.0688695183871
100.0689040154225
100.06906188926368
100.06976764147389
100.07283540959548
100.08572428794665
100.13764355318808
100.33595466433711
101.04305462090512
103.34435329238794
109.96548720895683
126.12996859904497
158.2768583134211
158.46023364370714
126.31955043945527
110.15924174009085
103.54056589521193
101.24054350066487
100.5340301201536
100.33595467108577
100.28412001194765
100.27125843033231
100.26819877390159
100.26749526845533
100.26733798234876
100.2673036325504
100.26729628093841
100.26729474633626
100.26729449103988
100.2672947463362
100.26729628093798
100.26730363256758
100.26733798243333
100.26749526802799
100.26819877455681
100.27125843710823
100.28412000973289
100.33595477736179
100.53402987575612
101.24054403487094
103.54056319938061
110.15924332253955
126.31957637605865
158.46023402536974
159.11741873766283
126.99875956271018
110.85252351618709
104.24169460119005
101.94546528457856
101.24054339234628
101.04305374084979
100.99141166824884
100.97860780992416
100.97556422131493
100.97486493134643
100.97470869946255
100.97467460315596
100.97466731051728
100.97466578914049
100.97466553615929
100.97466578914039
100.97466731051694
100.97467460317306
100.97470869954661
100.9748649309217
100.97556422196638
100.97860781666787
100.99141166604335
101.04305384678308
101.24054314857496
101.9454658177827
104.24169190917499
110.85252509710214
126.99878547967992
159.11741911956236
161.26749360061544
129.21967698357557
113.11648922181601
106.52801360202952
104.24169432936256
103.54056551518036
103.34435537377085
103.29310297513373
103.28040862212002
103.2773939167417
103.27670186936079
103.2765473806841
103.27651369003156
103.27650648913658
103.2765049878432
103.27650473831858
103.27650498784318
103.27650648913615
103.27651369004836
103.27654738076708
103.27670186894048
103.27739391738675
103.28040862880391
103.29310297294607
103.34435547897755
103.54056527283625
104.24169486004924
106.5280109203574
113.11649079814647
129.21970283873344
161.26749398314453
167.4850368388021
135.6380246226352
119.64983572509463
113.11648850050679
110.85252252327167
110.15924063932869
109.9654842924624
109.91493350619163
109.90242633490735
109.8994589196779
109.89877831051322
109.89862649201514
109.89859340665909
109.89858633959012
109.89858486702798
109.89858462238023
109.89858486702792
109.89858633958968
109.89859340667559
109.89862649209662
109.89877831009996
109.89945892031255
109.90242634149061
109.91493350403533
109.96548439630887
110.1592403998327
110.85252304848012
113.11648584311875
119.64983728950573
135.63805030684324
167.48503722225217
182.73186448021826
151.366861701993
135.6380743457602
129.21972633179183
126.9988087656932
126.31959957543101
126.12999157621583
126.08057128505193
126.068354077233
126.06545756838663
126.06479364581122
126.06464563281433
126.06461339293824
126.06460650955441
126.06460507583658
126.06460483771157
126.06460507583658
126.06460650955391
126.06461339295439
126.06464563289381
126.06479364540813
126.06545756900593
126.06835408366207
126.08057128294493
126.1299916778034
126.31959934090902
126.9988092806528
129.2197237229938
135.63807588402105
151.36688698620085
182.7318648625975
213.15278691809647
182.73181864201706
167.4850384795807
161.2674945617138
159.11741944323904
158.46023424790636
158.27685831612257
158.22908068621055
158.2172733888008
158.21447483986776
158.21383352523966
158.21369058245756
158.21365945274945
158.21365280749174
158.21365142357416
158.21365119374494
158.2136514235742
158.21365280749137
158.21365945276506
158.2136905825342
158.21383352485026
158.21447484046618
158.21727339501373
158.22908068417382
158.27685841435755
158.46023402103273
159.11741994166647
161.2674920353017
167.4850399703415
182.731843159561
213.1527872915314

